
     Program PWSCF v.6.7MaX starts on  7Jul2024 at 20:44:29 

     This program is part of the open-source Quantum ESPRESSO suite
     for quantum simulation of materials; please cite
         "P. Giannozzi et al., J. Phys.:Condens. Matter 21 395502 (2009);
         "P. Giannozzi et al., J. Phys.:Condens. Matter 29 465901 (2017);
          URL http://www.quantum-espresso.org", 
     in publications or presentations arising from this work. More details at
     http://www.quantum-espresso.org/quote

     Parallel version (MPI), running on     4 processors

     MPI processes distributed on     1 nodes
     R & G space division:  proc/nbgrp/npool/nimage =       4
     Waiting for input...
     Reading input from standard input

     Current dimensions of program PWSCF are:
     Max number of different atomic species (ntypx) = 10
     Max number of k-points (npk) =  40000
     Max angular momentum in pseudopotentials (lmaxx) =  3
     file Cr.pbe-spn-rrkjus_psl.1.0.0.UPF: wavefunction(s)  3P renormalized
     file Hg.pbe-spn-rrkjus_psl.1.0.0.UPF: wavefunction(s)  5P renormalized

     Subspace diagonalization in iterative solution of the eigenvalue problem:
     one sub-group per band group will be used
     scalapack distributed-memory algorithm (size of sub-group:  2*  2 procs)

     Message from routine setup:
     using ibrav=0 with symmetry is DISCOURAGED, use correct ibrav instead

     Parallelization info
     --------------------
     sticks:   dense  smooth     PW     G-vecs:    dense   smooth      PW
     Min        1171     729    205                52939    26143    3868
     Max        1174     730    206                52940    26146    3869
     Sum        4687    2917    823               211759   104579   15473



     bravais-lattice index     =            0
     lattice parameter (alat)  =      14.5738  a.u.
     unit-cell volume          =    2188.7812 (a.u.)^3
     number of atoms/cell      =           14
     number of atomic types    =            3
     number of electrons       =       144.00
     number of Kohn-Sham states=          120
     kinetic-energy cutoff     =      50.0000  Ry
     charge density cutoff     =     320.0000  Ry
     scf convergence threshold =      2.8E-07
     mixing beta               =       0.4000
     number of iterations used =            8  plain     mixing
     Exchange-correlation= PBE
                           (   1   4   3   4   0   0   0)

     celldm(1)=  14.573788  celldm(2)=   0.000000  celldm(3)=   0.000000
     celldm(4)=   0.000000  celldm(5)=   0.000000  celldm(6)=   0.000000

     crystal axes: (cart. coord. in units of alat)
               a(1) = (   0.288675   0.816497   0.500000 )  
               a(2) = (   0.288675   0.816497  -0.500000 )  
               a(3) = (  -0.577350   0.816497   0.000000 )  

     reciprocal axes: (cart. coord. in units 2 pi/alat)
               b(1) = (  0.577350  0.408248  1.000000 )  
               b(2) = (  0.577350  0.408248 -1.000000 )  
               b(3) = ( -1.154701  0.408248  0.000000 )  


     PseudoPot. # 1 for Cr read from file:
     /home/hafidz/Documents/DFT/Pseudopotential/rrkjus/Cr.pbe-spn-rrkjus_psl.1.0.0.UPF
     MD5 check sum: ac5cc0a679be6eadbc07e1887cd97696
     Pseudo is Ultrasoft + core correction, Zval = 14.0
     Generated using "atomic" code by A. Dal Corso  v.5.1.2
     Using radial grid of 1183 points,  6 beta functions with: 
                l(1) =   0
                l(2) =   0
                l(3) =   1
                l(4) =   1
                l(5) =   2
                l(6) =   2
     Q(r) pseudized with 0 coefficients 


     PseudoPot. # 2 for Hg read from file:
     /home/hafidz/Documents/DFT/Pseudopotential/rrkjus/Hg.pbe-spn-rrkjus_psl.1.0.0.UPF
     MD5 check sum: 65689333edf7621de08780c51a426de3
     Pseudo is Ultrasoft + core correction, Zval = 20.0
     Generated using "atomic" code by A. Dal Corso  v.5.1.2
     Using radial grid of 1279 points,  6 beta functions with: 
                l(1) =   0
                l(2) =   0
                l(3) =   1
                l(4) =   1
                l(5) =   2
                l(6) =   2
     Q(r) pseudized with 0 coefficients 


     PseudoPot. # 3 for Se read from file:
     /home/hafidz/Documents/DFT/Pseudopotential/rrkjus/Se.pbe-n-rrkjus_psl.1.0.0.UPF
     MD5 check sum: 5f5e5c15c95449acb3b45b44a6529d2d
     Pseudo is Ultrasoft + core correction, Zval =  6.0
     Generated using "atomic" code by A. Dal Corso  v.5.1.2
     Using radial grid of 1211 points,  4 beta functions with: 
                l(1) =   0
                l(2) =   0
                l(3) =   1
                l(4) =   1
     Q(r) pseudized with 0 coefficients 


     atomic species   valence    mass     pseudopotential
        Cr            14.00    51.99610     Cr( 1.00)
        Hg            20.00   200.59200     Hg( 1.00)
        Se             6.00    78.97100     Se( 1.00)

     Starting magnetic structure 
     atomic species   magnetization
        Cr           0.100
        Hg           0.000
        Se           0.000

      4 Sym. Ops., with inversion, found ( 2 have fractional translation)



   Cartesian axes

     site n.     atom                  positions (alat units)
         1           Cr  tau(   1) = (   0.1443375   1.3268070   0.2500000  )
         2           Cr  tau(   2) = (  -0.2886752   1.3268070   0.0000000  )
         3           Cr  tau(   3) = (  -0.0000000   0.9185587   0.0000000  )
         4           Cr  tau(   4) = (   0.1443375   1.3268070  -0.2500000  )
         5           Hg  tau(   5) = (   0.0000012  -0.0000004   0.0000000  )
         6           Hg  tau(   6) = (  -0.0000013   1.8371178   0.0000000  )
         7           Se  tau(   7) = (   0.1243423   0.7002960   0.2153674  )
         8           Se  tau(   8) = (  -0.2486845   0.7002958   0.0000000  )
         9           Se  tau(   9) = (  -0.1243423   1.1368214  -0.2153674  )
        10           Se  tau(  10) = (   0.1243423   0.7002960  -0.2153674  )
        11           Se  tau(  11) = (  -0.0000002   0.3486022   0.0000000  )
        12           Se  tau(  12) = (  -0.1243423   1.1368214   0.2153674  )
        13           Se  tau(  13) = (   0.0000001   1.4885152   0.0000000  )
        14           Se  tau(  14) = (   0.2486844   1.1368216   0.0000000  )

     number of k points=    39  Marzari-Vanderbilt smearing, width (Ry)=  0.1000
                       cart. coord. in units 2pi/alat
        k(    1) = (   0.0000000   0.0000000   0.0000000), wk =   0.0080000
        k(    2) = (  -0.2309401   0.0816496   0.0000000), wk =   0.0160000
        k(    3) = (  -0.4618802   0.1632993   0.0000000), wk =   0.0160000
        k(    4) = (   0.1154701   0.0816497  -0.2000000), wk =   0.0320000
        k(    5) = (  -0.1154701   0.1632993  -0.2000000), wk =   0.0320000
        k(    6) = (  -0.3464102   0.2449489  -0.2000000), wk =   0.0320000
        k(    7) = (   0.5773503  -0.0816496  -0.2000000), wk =   0.0320000
        k(    8) = (   0.3464102   0.0000000  -0.2000000), wk =   0.0320000
        k(    9) = (   0.2309401   0.1632993  -0.4000000), wk =   0.0320000
        k(   10) = (   0.0000000   0.2449490  -0.4000000), wk =   0.0320000
        k(   11) = (  -0.2309401   0.3265986  -0.4000000), wk =   0.0320000
        k(   12) = (   0.6928203   0.0000000  -0.4000000), wk =   0.0320000
        k(   13) = (   0.4618802   0.0816497  -0.4000000), wk =   0.0320000
        k(   14) = (   0.2309401   0.1632993   0.0000000), wk =   0.0160000
        k(   15) = (   0.0000000   0.2449490   0.0000000), wk =   0.0160000
        k(   16) = (  -0.2309401   0.3265986   0.0000000), wk =   0.0160000
        k(   17) = (   0.6928203   0.0000000   0.0000000), wk =   0.0160000
        k(   18) = (   0.4618802   0.0816497   0.0000000), wk =   0.0160000
        k(   19) = (   0.3464102   0.2449490  -0.2000000), wk =   0.0320000
        k(   20) = (   0.1154701   0.3265986  -0.2000000), wk =   0.0320000
        k(   21) = (  -0.1154701   0.4082483  -0.2000000), wk =   0.0320000
        k(   22) = (   0.8082904   0.0816497  -0.2000000), wk =   0.0320000
        k(   23) = (   0.5773503   0.1632993  -0.2000000), wk =   0.0320000
        k(   24) = (  -0.1154701  -0.0816497   0.6000000), wk =   0.0320000
        k(   25) = (  -0.3464102  -0.0000000   0.6000000), wk =   0.0320000
        k(   26) = (  -0.5773503   0.0816496   0.6000000), wk =   0.0320000
        k(   27) = (   0.3464102  -0.2449489   0.6000000), wk =   0.0320000
        k(   28) = (   0.1154701  -0.1632993   0.6000000), wk =   0.0320000
        k(   29) = (   0.0000000   0.0000000   0.4000000), wk =   0.0160000
        k(   30) = (  -0.2309401   0.0816496   0.4000000), wk =   0.0320000
        k(   31) = (  -0.4618802   0.1632993   0.4000000), wk =   0.0320000
        k(   32) = (   0.4618802   0.3265986   0.0000000), wk =   0.0160000
        k(   33) = (   0.2309401   0.4082483   0.0000000), wk =   0.0160000
        k(   34) = (   0.0000000   0.4898979   0.0000000), wk =   0.0160000
        k(   35) = (   0.9237604   0.1632994   0.0000000), wk =   0.0160000
        k(   36) = (   0.6928203   0.2449490   0.0000000), wk =   0.0160000
        k(   37) = (   0.0000000   0.0000000   0.8000001), wk =   0.0160000
        k(   38) = (  -0.2309401   0.0816496   0.8000001), wk =   0.0320000
        k(   39) = (  -0.4618802   0.1632993   0.8000001), wk =   0.0320000

     Dense  grid:   211759 G-vectors     FFT dimensions: (  96,  96,  96)

     Smooth grid:   104579 G-vectors     FFT dimensions: (  72,  72,  72)

     Estimated max dynamical RAM per process >     719.17 MB

     Estimated total dynamical RAM >       2.81 GB

     Check: negative core charge=   -0.000002
     Generating pointlists ...
     new r_m :   0.1365 (alat units)  1.9892 (a.u.) for type    1
     new r_m :   0.1438 (alat units)  2.0957 (a.u.) for type    2
     new r_m :   0.1365 (alat units)  1.9892 (a.u.) for type    3

     Initial potential from superposition of free atoms

     starting charge  143.99614, renormalised to  144.00000
     Starting wfcs are   92 randomized atomic wfcs +   28 random wfcs

     total cpu time spent up to now is       84.8 secs

     Self-consistent Calculation

     iteration #  1     ecut=    50.00 Ry     beta= 0.40
     Davidson diagonalization with overlap
     ethr =  1.00E-02,  avg # of iterations =  6.0

     total cpu time spent up to now is      473.7 secs

     total energy              =   -1501.14623573 Ry
     estimated scf accuracy    <       1.94799401 Ry

     total magnetization       =     6.02 Bohr mag/cell
     absolute magnetization    =     7.23 Bohr mag/cell

     iteration #  2     ecut=    50.00 Ry     beta= 0.40
     Davidson diagonalization with overlap
     ethr =  1.35E-03,  avg # of iterations =  3.0

     total cpu time spent up to now is      765.1 secs

     total energy              =   -1501.03581215 Ry
     estimated scf accuracy    <      11.71256747 Ry

     total magnetization       =     4.89 Bohr mag/cell
     absolute magnetization    =     5.28 Bohr mag/cell

     iteration #  3     ecut=    50.00 Ry     beta= 0.40
     Davidson diagonalization with overlap
     ethr =  1.35E-03,  avg # of iterations =  2.0

     total cpu time spent up to now is     1016.5 secs

     total energy              =   -1502.07138073 Ry
     estimated scf accuracy    <       0.04782306 Ry

     total magnetization       =     6.49 Bohr mag/cell
     absolute magnetization    =     7.77 Bohr mag/cell

     iteration #  4     ecut=    50.00 Ry     beta= 0.40
     Davidson diagonalization with overlap
     ethr =  3.32E-05,  avg # of iterations =  7.6

     total cpu time spent up to now is     1367.6 secs

     total energy              =   -1502.09461855 Ry
     estimated scf accuracy    <       0.02490347 Ry

     total magnetization       =     7.13 Bohr mag/cell
     absolute magnetization    =     8.59 Bohr mag/cell

     iteration #  5     ecut=    50.00 Ry     beta= 0.40
     Davidson diagonalization with overlap
     ethr =  1.73E-05,  avg # of iterations =  1.5

     total cpu time spent up to now is     1587.4 secs

     total energy              =   -1502.10023530 Ry
     estimated scf accuracy    <       0.05013182 Ry

     total magnetization       =     7.97 Bohr mag/cell
     absolute magnetization    =     9.64 Bohr mag/cell

     iteration #  6     ecut=    50.00 Ry     beta= 0.40
     Davidson diagonalization with overlap
     ethr =  1.73E-05,  avg # of iterations =  1.0

     total cpu time spent up to now is     1791.9 secs

     total energy              =   -1502.11516078 Ry
     estimated scf accuracy    <       0.02412612 Ry

     total magnetization       =     8.06 Bohr mag/cell
     absolute magnetization    =     9.77 Bohr mag/cell

     iteration #  7     ecut=    50.00 Ry     beta= 0.40
     Davidson diagonalization with overlap
     ethr =  1.68E-05,  avg # of iterations =  1.0

     total cpu time spent up to now is     1995.8 secs

     total energy              =   -1502.11739679 Ry
     estimated scf accuracy    <       0.01851390 Ry

     total magnetization       =     8.91 Bohr mag/cell
     absolute magnetization    =    10.94 Bohr mag/cell

     iteration #  8     ecut=    50.00 Ry     beta= 0.40
     Davidson diagonalization with overlap
     ethr =  1.29E-05,  avg # of iterations =  3.1

     total cpu time spent up to now is     2306.0 secs

     total energy              =   -1502.14935321 Ry
     estimated scf accuracy    <       0.08350800 Ry

     total magnetization       =    10.14 Bohr mag/cell
     absolute magnetization    =    12.84 Bohr mag/cell

     iteration #  9     ecut=    50.00 Ry     beta= 0.40
     Davidson diagonalization with overlap
     ethr =  1.29E-05,  avg # of iterations =  1.0

     total cpu time spent up to now is     2510.8 secs

     total energy              =   -1502.14455210 Ry
     estimated scf accuracy    <       0.06376801 Ry

     total magnetization       =    10.29 Bohr mag/cell
     absolute magnetization    =    13.17 Bohr mag/cell

     iteration # 10     ecut=    50.00 Ry     beta= 0.40
     Davidson diagonalization with overlap
     ethr =  1.29E-05,  avg # of iterations =  2.0

     total cpu time spent up to now is     2753.8 secs

     total energy              =   -1502.14949329 Ry
     estimated scf accuracy    <       0.00291504 Ry

     total magnetization       =    10.46 Bohr mag/cell
     absolute magnetization    =    13.54 Bohr mag/cell

     iteration # 11     ecut=    50.00 Ry     beta= 0.40
     Davidson diagonalization with overlap
     ethr =  2.02E-06,  avg # of iterations =  2.3

     total cpu time spent up to now is     2973.3 secs

     total energy              =   -1502.14893763 Ry
     estimated scf accuracy    <       0.00018354 Ry

     total magnetization       =    10.34 Bohr mag/cell
     absolute magnetization    =    13.37 Bohr mag/cell

     iteration # 12     ecut=    50.00 Ry     beta= 0.40
     Davidson diagonalization with overlap
     ethr =  1.27E-07,  avg # of iterations =  2.7

     total cpu time spent up to now is     3262.1 secs

     total energy              =   -1502.14996951 Ry
     estimated scf accuracy    <       0.00026548 Ry

     total magnetization       =    10.50 Bohr mag/cell
     absolute magnetization    =    13.80 Bohr mag/cell

     iteration # 13     ecut=    50.00 Ry     beta= 0.40
     Davidson diagonalization with overlap
     ethr =  1.27E-07,  avg # of iterations =  2.1

     total cpu time spent up to now is     3517.8 secs

     total energy              =   -1502.15018700 Ry
     estimated scf accuracy    <       0.00000904 Ry

     total magnetization       =    10.40 Bohr mag/cell
     absolute magnetization    =    13.61 Bohr mag/cell

     iteration # 14     ecut=    50.00 Ry     beta= 0.40
     Davidson diagonalization with overlap
     ethr =  6.28E-09,  avg # of iterations =  4.2

     total cpu time spent up to now is     3802.0 secs

     total energy              =   -1502.15018888 Ry
     estimated scf accuracy    <       0.00000267 Ry

     total magnetization       =    10.39 Bohr mag/cell
     absolute magnetization    =    13.61 Bohr mag/cell

     iteration # 15     ecut=    50.00 Ry     beta= 0.40
     Davidson diagonalization with overlap
     ethr =  1.86E-09,  avg # of iterations =  3.3

     total cpu time spent up to now is     4080.1 secs

     total energy              =   -1502.15019430 Ry
     estimated scf accuracy    <       0.00000068 Ry

     total magnetization       =    10.41 Bohr mag/cell
     absolute magnetization    =    13.64 Bohr mag/cell

     iteration # 16     ecut=    50.00 Ry     beta= 0.40
     Davidson diagonalization with overlap
     ethr =  4.69E-10,  avg # of iterations =  2.2

     total cpu time spent up to now is     4338.0 secs

     total energy              =   -1502.15019493 Ry
     estimated scf accuracy    <       0.00000214 Ry

     total magnetization       =    10.40 Bohr mag/cell
     absolute magnetization    =    13.63 Bohr mag/cell

     iteration # 17     ecut=    50.00 Ry     beta= 0.40
     Davidson diagonalization with overlap
     ethr =  4.69E-10,  avg # of iterations =  2.0

     Magnetic moment per site:
     atom:    1    charge:   12.1340    magn:    2.6850    constr:    0.0000
     atom:    2    charge:   12.1341    magn:    2.6851    constr:    0.0000
     atom:    3    charge:   12.1340    magn:    2.6850    constr:    0.0000
     atom:    4    charge:   12.1340    magn:    2.6850    constr:    0.0000
     atom:    5    charge:   17.6191    magn:   -0.0051    constr:    0.0000
     atom:    6    charge:   17.6191    magn:   -0.0051    constr:    0.0000
     atom:    7    charge:    3.8760    magn:   -0.1444    constr:    0.0000
     atom:    8    charge:    3.8760    magn:   -0.1444    constr:    0.0000
     atom:    9    charge:    3.8760    magn:   -0.1444    constr:    0.0000
     atom:   10    charge:    3.8760    magn:   -0.1444    constr:    0.0000
     atom:   11    charge:    3.8760    magn:   -0.1444    constr:    0.0000
     atom:   12    charge:    3.8760    magn:   -0.1444    constr:    0.0000
     atom:   13    charge:    3.8760    magn:   -0.1444    constr:    0.0000
     atom:   14    charge:    3.8760    magn:   -0.1444    constr:    0.0000

     total cpu time spent up to now is     4583.8 secs

     End of self-consistent calculation

 ------ SPIN UP ------------


          k = 0.0000 0.0000 0.0000 ( 13107 PWs)   bands (ev):

  -106.7954-106.7954 -64.8839 -64.8835 -64.8835 -64.8835 -55.1046 -55.1045
   -55.1045 -55.1044 -55.1043 -55.1043 -36.2855 -36.2785 -36.2784 -36.2784
   -36.2739 -36.2739 -36.2725 -36.2725 -36.2725 -36.2711 -36.2711 -36.2711
    -5.9303  -5.0075  -4.4922  -4.4922  -4.4922  -4.4506  -4.4506  -4.4506
     1.2855   1.2855   1.2855   1.3533   1.3533   1.3719   1.3719   1.3719
     1.3913   1.4788   1.4788   2.0694   2.7588   2.7588   2.7588   4.1329
     4.1329   4.4652   4.4652   5.1105   5.1105   5.1105   5.5757   5.5757
     5.5757   5.6706   5.6706   5.6706   6.0057   6.3494   6.3494   6.3494
     6.4001   6.4001   6.7618   6.7618   6.7618   6.8663   6.8663   6.8663
     6.9719   6.9719   6.9719   7.9009   7.9009   7.9009   8.5307   9.2703
     9.6336   9.6336   9.6336  10.0355  10.0355  10.0355  10.1279  10.1279
    11.5850  11.5850  11.5851  12.6211  12.6211  12.6211  12.6647  14.3833
    14.3834  14.3834  14.9115  14.9115  15.8762  15.8762  15.8762  16.0760
    16.0760  16.0760  16.1602  16.1602  18.2304  18.2773  19.0406  19.0407
    19.0407  19.9391  19.9391  19.9391  20.1912  20.3478  20.3478  20.7459

          k =-0.2309 0.0816 0.0000 ( 13128 PWs)   bands (ev):

  -106.7954-106.7954 -64.8839 -64.8836 -64.8835 -64.8835 -55.1060 -55.1059
   -55.1053 -55.1044 -55.1042 -55.1034 -36.2850 -36.2786 -36.2782 -36.2782
   -36.2738 -36.2738 -36.2729 -36.2726 -36.2726 -36.2714 -36.2714 -36.2711
    -5.8606  -5.0638  -4.5721  -4.5054  -4.5054  -4.4394  -4.4394  -4.4300
     1.1427   1.2114   1.2819   1.2819   1.3447   1.3447   1.3706   1.3706
     1.4738   1.4739   1.7458   2.2564   2.9129   2.9129   3.1171   4.0990
     4.0990   4.4373   4.4373   4.9279   5.0761   5.0827   5.0827   5.3467
     5.3995   5.3995   5.7257   5.7257   6.1128   6.1128   6.2144   6.4316
     6.6007   6.6007   6.6122   6.7964   6.7964   6.8662   6.9508   6.9508
     6.9630   6.9722   6.9722   7.4333   7.8938   7.8939   8.4209   9.5215
     9.5215   9.7258   9.7258   9.8519   9.9029  10.0533  10.0533  10.0844
    11.8257  11.8970  11.8971  12.7887  13.0452  13.2066  13.2066  14.1059
    14.3714  14.3714  15.2516  15.2516  15.4529  15.4529  15.5673  16.2073
    16.2073  16.2609  16.6983  16.6983  18.3409  18.6449  19.0230  19.0230
    19.1020  19.1589  19.1589  19.2377  19.5816  19.6422  19.6422  20.1132

          k =-0.4619 0.1633 0.0000 ( 13067 PWs)   bands (ev):

  -106.7954-106.7954 -64.8838 -64.8837 -64.8835 -64.8835 -55.1048 -55.1047
   -55.1041 -55.1037 -55.1036 -55.1032 -36.2838 -36.2790 -36.2779 -36.2779
   -36.2738 -36.2735 -36.2735 -36.2728 -36.2728 -36.2718 -36.2717 -36.2711
    -5.6983  -5.2252  -4.6303  -4.5203  -4.5203  -4.4455  -4.4276  -4.4276
     1.0364   1.1216   1.2837   1.2837   1.3052   1.3052   1.3946   1.3946
     1.4615   1.4615   2.2057   2.5210   3.2655   3.2655   3.8733   3.9493
     3.9493   4.3791   4.3791   4.4259   4.7112   5.0095   5.0095   5.0265
     5.1053   5.1053   5.3216   5.7992   5.7992   6.0507   6.0507   6.5651
     6.6172   6.6679   6.6679   6.8523   6.8523   6.8660   6.9543   6.9543
     7.0673   7.2192   7.2747   7.2747   7.7091   7.7091   8.3951   9.2182
     9.2182   9.4118   9.4118   9.6928  10.0119  10.0119  10.3350  10.4432
    12.6316  12.6316  12.6793  13.1309  13.5987  13.6359  13.6360  13.9488
    14.5763  14.5763  15.1559  15.1559  15.2713  16.4346  16.4346  16.6534
    16.6534  16.9351  17.1327  17.2834  17.2834  17.6377  17.6377  17.6605
    18.0244  18.1310  18.1310  18.4040  18.4040  19.2253  19.3357  19.3358

          k = 0.1155 0.0816-0.2000 ( 13128 PWs)   bands (ev):

  -106.7954-106.7954 -64.8839 -64.8835 -64.8835 -64.8835 -55.1060 -55.1059
   -55.1054 -55.1043 -55.1042 -55.1035 -36.2850 -36.2786 -36.2783 -36.2782
   -36.2738 -36.2738 -36.2730 -36.2726 -36.2726 -36.2714 -36.2714 -36.2711
    -5.8606  -5.0638  -4.5721  -4.5054  -4.5054  -4.4394  -4.4394  -4.4300
     1.1427   1.2114   1.2819   1.2819   1.3447   1.3447   1.3706   1.3706
     1.4738   1.4739   1.7458   2.2564   2.9129   2.9129   3.1171   4.0990
     4.0990   4.4373   4.4373   4.9279   5.0761   5.0827   5.0827   5.3467
     5.3995   5.3995   5.7257   5.7257   6.1128   6.1128   6.2144   6.4316
     6.6007   6.6007   6.6123   6.7963   6.7964   6.8662   6.9508   6.9508
     6.9630   6.9722   6.9722   7.4333   7.8938   7.8939   8.4209   9.5215
     9.5215   9.7259   9.7259   9.8518   9.9029  10.0533  10.0533  10.0844
    11.8257  11.8970  11.8971  12.7887  13.0452  13.2066  13.2066  14.1058
    14.3714  14.3714  15.2516  15.2516  15.4529  15.4529  15.5673  16.2073
    16.2073  16.2609  16.6983  16.6983  18.3409  18.6449  19.0230  19.0231
    19.1020  19.1589  19.1589  19.2378  19.5816  19.6422  19.6422  20.1130

          k =-0.1155 0.1633-0.2000 ( 13047 PWs)   bands (ev):

  -106.7954-106.7954 -64.8839 -64.8836 -64.8835 -64.8835 -55.1045 -55.1044
   -55.1037 -55.1034 -55.1029 -55.1029 -36.2847 -36.2788 -36.2781 -36.2780
   -36.2739 -36.2736 -36.2728 -36.2727 -36.2727 -36.2714 -36.2713 -36.2713
    -5.8364  -5.0779  -4.5434  -4.5434  -4.5265  -4.5020  -4.4016  -4.4016
     1.1491   1.1663   1.2923   1.2923   1.3154   1.3154   1.3625   1.3706
     1.4718   1.4722   1.8667   2.3060   3.0350   3.0350   3.0740   4.0522
     4.1669   4.4026   4.4453   4.8607   5.0187   5.0187   5.1411   5.3224
     5.3224   5.4312   5.6585   5.6585   5.8762   6.0689   6.2769   6.2769
     6.7288   6.7335   6.7335   6.7910   6.8242   6.8872   6.8873   6.8987
     6.9500   7.0587   7.0588   7.2129   7.8910   7.8910   8.3170   9.4677
     9.5109   9.5109   9.7534   9.7534  10.0074  10.0628  10.1557  10.2267
    11.9245  12.0706  12.0706  12.8592  13.2172  13.2172  13.4230  13.8986
    14.5918  14.5918  15.0127  15.2543  15.4636  15.6346  15.6346  16.2323
    16.3281  16.4237  16.4237  16.4302  18.2036  18.6712  18.6956  18.7213
    18.7213  19.0846  19.1173  19.1174  19.4590  19.4801  19.9049  20.1533

          k =-0.3464 0.2449-0.2000 ( 13041 PWs)   bands (ev):

  -106.7954-106.7954 -64.8838 -64.8836 -64.8835 -64.8835 -55.1043 -55.1040
   -55.1038 -55.1034 -55.1033 -55.1027 -36.2836 -36.2794 -36.2777 -36.2777
   -36.2738 -36.2736 -36.2733 -36.2730 -36.2726 -36.2718 -36.2717 -36.2713
    -5.6957  -5.2024  -4.6538  -4.5579  -4.5316  -4.4670  -4.4039  -4.3897
     1.0503   1.1013   1.2666   1.2845   1.3034   1.3112   1.3877   1.3941
     1.4603   1.4606   2.2555   2.5522   3.3063   3.3479   3.6545   4.0261
     4.1001   4.1602   4.3797   4.4848   4.7441   4.9545   5.0148   5.1089
     5.1568   5.2443   5.4049   5.6266   5.7434   5.8865   6.2629   6.2719
     6.3892   6.7538   6.7592   6.8007   6.8699   6.8896   6.9855   7.0282
     7.0817   7.1017   7.2060   7.2855   7.7729   7.8124   8.3322   9.0456
     9.2174   9.2978   9.5465   9.5633   9.7920  10.0053  10.6927  10.7329
    12.5700  12.7697  12.7915  13.2718  13.4725  13.8846  14.0478  14.2430
    14.3762  14.5503  14.7738  15.3480  15.4853  16.0765  16.1358  16.3966
    16.4796  16.6112  16.9283  17.0273  17.2089  17.3064  17.5264  17.8347
    17.9748  18.1831  18.3849  18.5199  18.6977  18.9565  19.3653  19.4607

          k = 0.5774-0.0816-0.2000 ( 13046 PWs)   bands (ev):

  -106.7954-106.7954 -64.8838 -64.8837 -64.8835 -64.8835 -55.1046 -55.1045
   -55.1036 -55.1035 -55.1031 -55.1028 -36.2830 -36.2798 -36.2776 -36.2775
   -36.2740 -36.2735 -36.2734 -36.2727 -36.2727 -36.2721 -36.2719 -36.2713
    -5.6062  -5.2888  -4.7122  -4.5410  -4.5148  -4.4506  -4.4081  -4.4062
     1.0136   1.0951   1.2513   1.2624   1.3039   1.3311   1.4041   1.4041
     1.4520   1.4534   2.4944   2.6051   3.4143   3.5599   3.7562   3.9682
     4.1284   4.2063   4.3534   4.3745   4.5691   4.7770   4.9428   4.9817
     5.1085   5.2057   5.2670   5.5923   5.7117   6.0304   6.0438   6.2741
     6.4125   6.6380   6.7660   6.7992   6.8590   6.9014   6.9920   7.1148
     7.1225   7.1988   7.3764   7.4179   7.5361   7.7364   8.4781   9.0356
     9.1293   9.1555   9.3538   9.5446   9.6064   9.9648  10.7769  10.9239
    12.8626  13.2825  13.3088  13.5372  13.7565  13.8165  13.9309  14.0430
    14.6078  14.8221  15.0633  15.1271  15.4039  16.0700  16.2796  16.2831
    16.4120  16.6823  16.8388  17.1713  17.2169  17.2493  17.3791  17.6048
    17.8406  17.8554  18.0249  18.1764  18.5909  18.6725  18.9813  19.0341

          k = 0.3464 0.0000-0.2000 ( 13111 PWs)   bands (ev):

  -106.7954-106.7954 -64.8838 -64.8836 -64.8835 -64.8835 -55.1057 -55.1051
   -55.1047 -55.1043 -55.1042 -55.1037 -36.2841 -36.2791 -36.2780 -36.2778
   -36.2738 -36.2735 -36.2735 -36.2728 -36.2725 -36.2718 -36.2715 -36.2713
    -5.7549  -5.1516  -4.6574  -4.5142  -4.5004  -4.4540  -4.4468  -4.3960
     1.0610   1.1441   1.2608   1.2761   1.3030   1.3551   1.3815   1.3843
     1.4648   1.4660   2.0696   2.4692   3.0773   3.3054   3.5036   4.0374
     4.0918   4.1988   4.3946   4.5691   4.8433   5.0328   5.0339   5.2493
     5.3123   5.3768   5.3964   5.5899   5.8004   6.2198   6.2201   6.3375
     6.4414   6.5424   6.7235   6.7361   6.8498   6.8997   6.9148   7.0614
     7.0711   7.1134   7.1342   7.2811   7.7667   7.8668   8.4181   9.3270
     9.3625   9.3656   9.5529   9.6547   9.7526   9.9636  10.4192  10.6123
    12.2993  12.3977  12.4651  13.2363  13.4939  13.6345  13.8636  13.9416
    14.5084  14.6334  14.6959  15.0871  15.2535  15.6193  16.1786  16.3755
    16.4575  16.7483  16.8444  17.1490  17.5949  17.7008  18.0693  18.1211
    18.2112  18.5204  18.7772  18.9321  19.1636  19.4005  19.5746  19.7393

          k = 0.2309 0.1633-0.4000 ( 13067 PWs)   bands (ev):

  -106.7954-106.7954 -64.8838 -64.8836 -64.8835 -64.8835 -55.1047 -55.1046
   -55.1041 -55.1037 -55.1036 -55.1033 -36.2838 -36.2789 -36.2779 -36.2779
   -36.2738 -36.2735 -36.2735 -36.2728 -36.2728 -36.2718 -36.2718 -36.2711
    -5.6983  -5.2252  -4.6303  -4.5204  -4.5203  -4.4455  -4.4276  -4.4276
     1.0364   1.1216   1.2837   1.2837   1.3051   1.3052   1.3946   1.3946
     1.4615   1.4615   2.2057   2.5209   3.2655   3.2655   3.8733   3.9493
     3.9493   4.3791   4.3791   4.4259   4.7112   5.0095   5.0095   5.0265
     5.1053   5.1053   5.3216   5.7992   5.7992   6.0507   6.0507   6.5651
     6.6173   6.6679   6.6679   6.8523   6.8523   6.8660   6.9543   6.9543
     7.0672   7.2191   7.2747   7.2747   7.7091   7.7091   8.3950   9.2182
     9.2182   9.4118   9.4118   9.6927  10.0119  10.0119  10.3350  10.4432
    12.6316  12.6316  12.6793  13.1309  13.5987  13.6359  13.6360  13.9489
    14.5763  14.5763  15.1559  15.1559  15.2713  16.4346  16.4346  16.6534
    16.6534  16.9352  17.1327  17.2834  17.2834  17.6377  17.6377  17.6604
    18.0244  18.1310  18.1310  18.4040  18.4040  19.2256  19.3357  19.4454

          k = 0.0000 0.2449-0.4000 ( 13041 PWs)   bands (ev):

  -106.7954-106.7954 -64.8838 -64.8836 -64.8835 -64.8835 -55.1043 -55.1040
   -55.1038 -55.1033 -55.1033 -55.1028 -36.2836 -36.2794 -36.2777 -36.2777
   -36.2738 -36.2736 -36.2733 -36.2729 -36.2726 -36.2718 -36.2717 -36.2713
    -5.6957  -5.2024  -4.6538  -4.5579  -4.5316  -4.4670  -4.4039  -4.3897
     1.0503   1.1013   1.2666   1.2845   1.3034   1.3112   1.3877   1.3941
     1.4603   1.4606   2.2555   2.5522   3.3063   3.3479   3.6545   4.0261
     4.1001   4.1602   4.3797   4.4848   4.7441   4.9545   5.0148   5.1089
     5.1568   5.2443   5.4049   5.6266   5.7434   5.8865   6.2629   6.2719
     6.3892   6.7538   6.7592   6.8007   6.8699   6.8896   6.9855   7.0282
     7.0817   7.1017   7.2060   7.2855   7.7729   7.8124   8.3322   9.0456
     9.2174   9.2978   9.5464   9.5633   9.7920  10.0053  10.6927  10.7329
    12.5700  12.7698  12.7914  13.2718  13.4725  13.8846  14.0478  14.2430
    14.3762  14.5503  14.7738  15.3480  15.4853  16.0766  16.1358  16.3966
    16.4796  16.6112  16.9283  17.0273  17.2089  17.3064  17.5264  17.8347
    17.9748  18.1831  18.3849  18.5199  18.6977  18.9564  19.3653  19.4607

          k =-0.2309 0.3266-0.4000 ( 13019 PWs)   bands (ev):

  -106.7954-106.7954 -64.8838 -64.8836 -64.8835 -64.8835 -55.1040 -55.1040
   -55.1035 -55.1028 -55.1028 -55.1026 -36.2826 -36.2803 -36.2773 -36.2773
   -36.2739 -36.2736 -36.2732 -36.2732 -36.2729 -36.2721 -36.2715 -36.2715
    -5.5893  -5.2918  -4.5856  -4.5856  -4.5820  -4.5789  -4.3631  -4.3631
     1.0520   1.0520   1.2378   1.2378   1.3225   1.3225   1.4007   1.4106
     1.4467   1.4495   2.5416   2.6974   3.5879   3.5879   3.6280   3.9478
     4.2245   4.2616   4.3746   4.4530   4.7897   4.7982   4.7982   4.8421
     4.8421   5.2446   5.2823   5.4739   5.7082   5.7083   6.1082   6.1082
     6.6994   6.7437   6.7608   6.7609   6.8679   6.8679   6.9701   6.9812
     7.1821   7.2947   7.3874   7.3874   7.7331   7.7331   8.1572   8.6241
     8.9686   8.9686   9.6307   9.6307   9.9597   9.9694  10.9658  11.1285
    12.8591  13.1323  13.4380  13.4380  13.9497  13.9611  13.9611  14.1388
    15.0481  15.0481  15.1344  15.7782  16.0312  16.0312  16.0450  16.2194
    16.2571  16.3783  16.3783  16.8215  16.8215  17.0104  17.1030  17.2703
    17.3819  17.9063  18.0396  18.1965  18.3689  18.3689  19.0186  19.0186

          k = 0.6928 0.0000-0.4000 ( 13050 PWs)   bands (ev):

  -106.7954-106.7954 -64.8837 -64.8837 -64.8835 -64.8835 -55.1051 -55.1042
   -55.1038 -55.1033 -55.1032 -55.1030 -36.2818 -36.2810 -36.2773 -36.2772
   -36.2740 -36.2736 -36.2735 -36.2729 -36.2725 -36.2723 -36.2719 -36.2715
    -5.4737  -5.3981  -4.7137  -4.5783  -4.5702  -4.4654  -4.3842  -4.3712
     1.0163   1.0546   1.2324   1.2639   1.2982   1.3305   1.4227   1.4245
     1.4323   1.4374   2.7248   2.7504   3.5492   3.6609   3.8766   3.9187
     4.1387   4.3096   4.3231   4.4321   4.4505   4.6674   4.7806   4.8666
     4.9890   5.1907   5.2324   5.4541   5.6625   5.8815   6.0849   6.0960
     6.2568   6.6718   6.8155   6.8335   6.8612   6.9603   7.0055   7.0575
     7.1987   7.2277   7.4992   7.5187   7.5672   7.6559   8.4786   8.5627
     8.9446   8.9853   9.3385   9.5030   9.7572   9.9628  11.1129  11.2866
    13.0796  13.4576  13.6436  13.9130  14.0701  14.2565  14.2748  14.3921
    14.8154  15.0125  15.2187  15.4044  15.4711  15.7155  15.7961  15.7966
    15.8940  16.3183  16.6620  16.9379  17.0433  17.1424  17.3231  17.4580
    17.5415  17.6895  17.7741  18.2548  18.3659  18.3868  18.6211  18.7637

          k = 0.4619 0.0816-0.4000 ( 13046 PWs)   bands (ev):

  -106.7954-106.7954 -64.8838 -64.8836 -64.8835 -64.8835 -55.1046 -55.1045
   -55.1036 -55.1035 -55.1032 -55.1028 -36.2830 -36.2797 -36.2776 -36.2775
   -36.2740 -36.2735 -36.2734 -36.2726 -36.2726 -36.2721 -36.2719 -36.2713
    -5.6062  -5.2888  -4.7122  -4.5410  -4.5148  -4.4506  -4.4081  -4.4062
     1.0136   1.0951   1.2513   1.2624   1.3039   1.3311   1.4041   1.4041
     1.4520   1.4534   2.4944   2.6051   3.4143   3.5599   3.7562   3.9682
     4.1284   4.2063   4.3534   4.3745   4.5691   4.7770   4.9428   4.9817
     5.1085   5.2057   5.2670   5.5923   5.7117   6.0304   6.0438   6.2741
     6.4125   6.6381   6.7660   6.7992   6.8590   6.9014   6.9920   7.1148
     7.1225   7.1988   7.3764   7.4179   7.5361   7.7364   8.4781   9.0356
     9.1293   9.1555   9.3539   9.5446   9.6064   9.9648  10.7769  10.9239
    12.8626  13.2825  13.3088  13.5372  13.7565  13.8165  13.9309  14.0430
    14.6078  14.8221  15.0634  15.1271  15.4040  16.0700  16.2796  16.2831
    16.4120  16.6823  16.8387  17.1713  17.2169  17.2493  17.3791  17.6048
    17.8406  17.8554  18.0249  18.1765  18.5908  18.6725  18.9813  19.0341

          k = 0.2309 0.1633 0.0000 ( 13047 PWs)   bands (ev):

  -106.7954-106.7954 -64.8839 -64.8836 -64.8835 -64.8835 -55.1044 -55.1044
   -55.1037 -55.1035 -55.1029 -55.1029 -36.2847 -36.2788 -36.2781 -36.2780
   -36.2739 -36.2736 -36.2728 -36.2727 -36.2727 -36.2714 -36.2713 -36.2713
    -5.8364  -5.0779  -4.5434  -4.5434  -4.5265  -4.5020  -4.4016  -4.4016
     1.1491   1.1663   1.2923   1.2923   1.3154   1.3154   1.3625   1.3706
     1.4718   1.4722   1.8667   2.3060   3.0350   3.0350   3.0740   4.0522
     4.1669   4.4026   4.4453   4.8607   5.0187   5.0187   5.1411   5.3224
     5.3224   5.4312   5.6585   5.6585   5.8762   6.0689   6.2769   6.2769
     6.7288   6.7335   6.7335   6.7910   6.8242   6.8872   6.8873   6.8987
     6.9500   7.0587   7.0588   7.2129   7.8910   7.8910   8.3170   9.4677
     9.5109   9.5109   9.7534   9.7534  10.0074  10.0628  10.1557  10.2267
    11.9244  12.0706  12.0706  12.8592  13.2172  13.2172  13.4230  13.8986
    14.5918  14.5918  15.0128  15.2543  15.4635  15.6346  15.6346  16.2323
    16.3281  16.4237  16.4237  16.4302  18.2037  18.6712  18.6956  18.7213
    18.7213  19.0846  19.1174  19.1174  19.4590  19.4801  19.9049  20.1535

          k = 0.0000 0.2449 0.0000 ( 13128 PWs)   bands (ev):

  -106.7954-106.7954 -64.8839 -64.8836 -64.8835 -64.8835 -55.1059 -55.1059
   -55.1054 -55.1043 -55.1042 -55.1035 -36.2850 -36.2786 -36.2783 -36.2782
   -36.2738 -36.2738 -36.2730 -36.2726 -36.2726 -36.2714 -36.2714 -36.2711
    -5.8606  -5.0638  -4.5721  -4.5054  -4.5054  -4.4394  -4.4394  -4.4300
     1.1427   1.2114   1.2819   1.2819   1.3447   1.3447   1.3706   1.3706
     1.4738   1.4739   1.7458   2.2564   2.9129   2.9129   3.1171   4.0990
     4.0990   4.4373   4.4373   4.9279   5.0761   5.0827   5.0827   5.3467
     5.3995   5.3995   5.7257   5.7258   6.1128   6.1129   6.2144   6.4316
     6.6007   6.6007   6.6123   6.7963   6.7964   6.8662   6.9508   6.9508
     6.9630   6.9722   6.9722   7.4333   7.8938   7.8939   8.4209   9.5215
     9.5215   9.7259   9.7259   9.8518   9.9029  10.0533  10.0533  10.0844
    11.8258  11.8970  11.8971  12.7887  13.0452  13.2066  13.2066  14.1058
    14.3714  14.3714  15.2516  15.2516  15.4529  15.4529  15.5673  16.2073
    16.2073  16.2609  16.6983  16.6983  18.3408  18.6450  19.0230  19.0230
    19.1020  19.1589  19.1589  19.2378  19.5816  19.6422  19.6422  20.1133

          k =-0.2309 0.3266 0.0000 ( 13111 PWs)   bands (ev):

  -106.7954-106.7954 -64.8838 -64.8836 -64.8835 -64.8835 -55.1056 -55.1052
   -55.1046 -55.1044 -55.1043 -55.1037 -36.2841 -36.2791 -36.2780 -36.2778
   -36.2738 -36.2735 -36.2735 -36.2728 -36.2725 -36.2718 -36.2715 -36.2713
    -5.7549  -5.1516  -4.6574  -4.5142  -4.5004  -4.4540  -4.4469  -4.3960
     1.0610   1.1441   1.2608   1.2761   1.3031   1.3551   1.3815   1.3842
     1.4648   1.4660   2.0696   2.4692   3.0773   3.3054   3.5036   4.0374
     4.0918   4.1988   4.3946   4.5691   4.8433   5.0328   5.0339   5.2493
     5.3123   5.3768   5.3964   5.5899   5.8004   6.2198   6.2201   6.3375
     6.4414   6.5424   6.7235   6.7361   6.8498   6.8997   6.9148   7.0614
     7.0710   7.1134   7.1342   7.2811   7.7667   7.8668   8.4181   9.3270
     9.3625   9.3656   9.5529   9.6548   9.7526   9.9636  10.4191  10.6123
    12.2993  12.3977  12.4651  13.2363  13.4939  13.6345  13.8636  13.9416
    14.5084  14.6334  14.6959  15.0871  15.2535  15.6193  16.1786  16.3755
    16.4575  16.7483  16.8444  17.1490  17.5949  17.7008  18.0693  18.1211
    18.2112  18.5204  18.7772  18.9321  19.1636  19.4005  19.5744  19.7389

          k = 0.6928 0.0000 0.0000 ( 13046 PWs)   bands (ev):

  -106.7954-106.7954 -64.8838 -64.8837 -64.8835 -64.8835 -55.1047 -55.1044
   -55.1035 -55.1035 -55.1031 -55.1029 -36.2830 -36.2798 -36.2776 -36.2775
   -36.2740 -36.2735 -36.2734 -36.2727 -36.2727 -36.2721 -36.2719 -36.2713
    -5.6062  -5.2888  -4.7122  -4.5410  -4.5148  -4.4506  -4.4081  -4.4062
     1.0136   1.0951   1.2513   1.2624   1.3039   1.3311   1.4040   1.4041
     1.4520   1.4534   2.4944   2.6051   3.4143   3.5599   3.7562   3.9682
     4.1284   4.2063   4.3534   4.3745   4.5691   4.7770   4.9428   4.9817
     5.1085   5.2057   5.2670   5.5923   5.7117   6.0304   6.0438   6.2741
     6.4125   6.6380   6.7660   6.7992   6.8590   6.9014   6.9920   7.1148
     7.1225   7.1988   7.3764   7.4179   7.5361   7.7364   8.4781   9.0356
     9.1293   9.1555   9.3538   9.5446   9.6064   9.9648  10.7769  10.9239
    12.8626  13.2825  13.3088  13.5372  13.7565  13.8165  13.9309  14.0430
    14.6078  14.8221  15.0633  15.1271  15.4039  16.0700  16.2796  16.2831
    16.4120  16.6823  16.8387  17.1713  17.2169  17.2493  17.3791  17.6049
    17.8406  17.8554  18.0249  18.1765  18.5909  18.6725  18.9813  19.0341

          k = 0.4619 0.0816 0.0000 ( 13041 PWs)   bands (ev):

  -106.7954-106.7954 -64.8838 -64.8836 -64.8835 -64.8835 -55.1044 -55.1039
   -55.1039 -55.1034 -55.1033 -55.1027 -36.2836 -36.2794 -36.2777 -36.2777
   -36.2738 -36.2736 -36.2733 -36.2730 -36.2726 -36.2718 -36.2717 -36.2713
    -5.6957  -5.2024  -4.6538  -4.5579  -4.5316  -4.4670  -4.4039  -4.3897
     1.0503   1.1013   1.2666   1.2844   1.3034   1.3112   1.3876   1.3941
     1.4603   1.4606   2.2555   2.5522   3.3063   3.3479   3.6545   4.0261
     4.1001   4.1602   4.3797   4.4848   4.7441   4.9545   5.0148   5.1089
     5.1568   5.2443   5.4049   5.6266   5.7434   5.8865   6.2629   6.2719
     6.3892   6.7538   6.7592   6.8007   6.8699   6.8896   6.9855   7.0282
     7.0817   7.1017   7.2060   7.2855   7.7729   7.8124   8.3322   9.0456
     9.2174   9.2978   9.5465   9.5633   9.7920  10.0053  10.6927  10.7329
    12.5700  12.7697  12.7914  13.2718  13.4725  13.8846  14.0478  14.2430
    14.3762  14.5503  14.7738  15.3480  15.4853  16.0765  16.1357  16.3966
    16.4796  16.6112  16.9283  17.0274  17.2089  17.3064  17.5264  17.8347
    17.9748  18.1831  18.3849  18.5199  18.6977  18.9565  19.3653  19.4607

          k = 0.3464 0.2449-0.2000 ( 13041 PWs)   bands (ev):

  -106.7954-106.7954 -64.8838 -64.8836 -64.8835 -64.8835 -55.1043 -55.1040
   -55.1039 -55.1034 -55.1033 -55.1028 -36.2836 -36.2794 -36.2777 -36.2776
   -36.2738 -36.2736 -36.2733 -36.2729 -36.2726 -36.2718 -36.2717 -36.2713
    -5.6957  -5.2024  -4.6538  -4.5580  -4.5316  -4.4670  -4.4039  -4.3897
     1.0503   1.1013   1.2666   1.2845   1.3034   1.3112   1.3876   1.3941
     1.4603   1.4606   2.2555   2.5522   3.3063   3.3479   3.6545   4.0261
     4.1001   4.1602   4.3797   4.4848   4.7441   4.9545   5.0148   5.1089
     5.1568   5.2443   5.4049   5.6266   5.7434   5.8865   6.2629   6.2719
     6.3892   6.7538   6.7592   6.8007   6.8699   6.8897   6.9855   7.0282
     7.0817   7.1018   7.2060   7.2855   7.7729   7.8124   8.3322   9.0456
     9.2174   9.2978   9.5464   9.5633   9.7920  10.0053  10.6927  10.7329
    12.5700  12.7697  12.7915  13.2718  13.4725  13.8846  14.0478  14.2430
    14.3762  14.5503  14.7738  15.3480  15.4853  16.0766  16.1357  16.3966
    16.4796  16.6112  16.9283  17.0274  17.2089  17.3064  17.5264  17.8347
    17.9748  18.1831  18.3849  18.5199  18.6977  18.9565  19.3653  19.4608

          k = 0.1155 0.3266-0.2000 ( 13111 PWs)   bands (ev):

  -106.7954-106.7954 -64.8839 -64.8836 -64.8835 -64.8835 -55.1056 -55.1051
   -55.1046 -55.1044 -55.1043 -55.1038 -36.2841 -36.2790 -36.2780 -36.2778
   -36.2738 -36.2735 -36.2735 -36.2728 -36.2725 -36.2718 -36.2715 -36.2713
    -5.7549  -5.1516  -4.6574  -4.5142  -4.5004  -4.4539  -4.4469  -4.3960
     1.0610   1.1441   1.2608   1.2761   1.3030   1.3551   1.3815   1.3843
     1.4648   1.4660   2.0696   2.4692   3.0773   3.3054   3.5036   4.0374
     4.0918   4.1988   4.3946   4.5691   4.8433   5.0328   5.0339   5.2493
     5.3123   5.3768   5.3964   5.5899   5.8004   6.2198   6.2201   6.3375
     6.4414   6.5424   6.7234   6.7361   6.8498   6.8997   6.9148   7.0614
     7.0711   7.1134   7.1342   7.2811   7.7667   7.8668   8.4181   9.3270
     9.3625   9.3656   9.5529   9.6547   9.7526   9.9636  10.4191  10.6123
    12.2993  12.3977  12.4651  13.2363  13.4939  13.6345  13.8636  13.9416
    14.5084  14.6334  14.6959  15.0871  15.2534  15.6193  16.1786  16.3755
    16.4575  16.7483  16.8444  17.1490  17.5949  17.7008  18.0693  18.1211
    18.2112  18.5204  18.7772  18.9321  19.1636  19.4005  19.5746  19.7396

          k =-0.1155 0.4082-0.2000 ( 13041 PWs)   bands (ev):

  -106.7954-106.7954 -64.8838 -64.8836 -64.8835 -64.8835 -55.1044 -55.1039
   -55.1039 -55.1033 -55.1033 -55.1028 -36.2836 -36.2794 -36.2777 -36.2776
   -36.2738 -36.2736 -36.2733 -36.2729 -36.2726 -36.2718 -36.2717 -36.2713
    -5.6957  -5.2024  -4.6538  -4.5580  -4.5316  -4.4670  -4.4039  -4.3897
     1.0503   1.1013   1.2666   1.2845   1.3034   1.3112   1.3877   1.3941
     1.4603   1.4606   2.2555   2.5522   3.3063   3.3479   3.6545   4.0261
     4.1001   4.1602   4.3797   4.4848   4.7441   4.9545   5.0148   5.1089
     5.1568   5.2443   5.4049   5.6266   5.7434   5.8865   6.2629   6.2719
     6.3892   6.7538   6.7592   6.8007   6.8699   6.8897   6.9855   7.0282
     7.0817   7.1018   7.2060   7.2855   7.7729   7.8124   8.3322   9.0456
     9.2174   9.2978   9.5465   9.5633   9.7920  10.0053  10.6927  10.7329
    12.5700  12.7698  12.7914  13.2718  13.4725  13.8846  14.0478  14.2430
    14.3762  14.5503  14.7738  15.3480  15.4853  16.0766  16.1358  16.3966
    16.4796  16.6112  16.9283  17.0273  17.2089  17.3064  17.5264  17.8347
    17.9747  18.1831  18.3849  18.5199  18.6977  18.9564  19.3653  19.4608

          k = 0.8083 0.0816-0.2000 ( 13044 PWs)   bands (ev):

  -106.7954-106.7954 -64.8837 -64.8837 -64.8835 -64.8835 -55.1049 -55.1046
   -55.1037 -55.1034 -55.1027 -55.1026 -36.2824 -36.2804 -36.2774 -36.2773
   -36.2740 -36.2738 -36.2733 -36.2729 -36.2726 -36.2721 -36.2718 -36.2716
    -5.5504  -5.3239  -4.7138  -4.6367  -4.4699  -4.4434  -4.4201  -4.3864
     1.0188   1.0597   1.2544   1.2825   1.2943   1.3092   1.4102   1.4152
     1.4437   1.4471   2.6000   2.7222   3.5650   3.6202   3.8067   3.8755
     4.1311   4.2424   4.3188   4.3829   4.4541   4.6512   4.9797   5.0096
     5.0726   5.2277   5.3062   5.3714   5.7546   5.9241   6.0671   6.2787
     6.3086   6.3482   6.7879   6.8734   6.9099   6.9395   7.0451   7.0835
     7.0916   7.1767   7.4230   7.4665   7.6071   7.7238   8.5158   8.8943
     9.0413   9.0501   9.2538   9.3711   9.7442   9.8556  11.1160  11.1571
    13.1073  13.3014  13.4947  13.7083  14.0496  14.1253  14.2290  14.4843
    14.6284  14.8151  15.0100  15.2623  15.3074  15.8520  15.9255  15.9625
    16.0751  16.2416  16.4590  17.0623  17.1593  17.3172  17.4455  17.4861
    17.8129  17.8328  18.0607  18.1840  18.4088  18.5260  19.0368  19.1184

          k = 0.5774 0.1633-0.2000 ( 13044 PWs)   bands (ev):

  -106.7954-106.7954 -64.8838 -64.8837 -64.8835 -64.8835 -55.1049 -55.1046
   -55.1037 -55.1034 -55.1027 -55.1027 -36.2824 -36.2804 -36.2774 -36.2773
   -36.2740 -36.2738 -36.2733 -36.2729 -36.2726 -36.2721 -36.2718 -36.2716
    -5.5504  -5.3239  -4.7138  -4.6367  -4.4699  -4.4434  -4.4201  -4.3864
     1.0188   1.0597   1.2544   1.2825   1.2943   1.3092   1.4102   1.4152
     1.4437   1.4471   2.6000   2.7222   3.5650   3.6202   3.8067   3.8755
     4.1311   4.2424   4.3188   4.3829   4.4541   4.6512   4.9797   5.0096
     5.0726   5.2277   5.3062   5.3714   5.7546   5.9241   6.0671   6.2787
     6.3086   6.3482   6.7879   6.8734   6.9099   6.9395   7.0451   7.0835
     7.0916   7.1767   7.4230   7.4665   7.6071   7.7238   8.5158   8.8944
     9.0413   9.0501   9.2538   9.3711   9.7442   9.8556  11.1160  11.1571
    13.1073  13.3014  13.4947  13.7083  14.0496  14.1253  14.2290  14.4843
    14.6284  14.8151  15.0100  15.2623  15.3074  15.8520  15.9255  15.9624
    16.0751  16.2416  16.4590  17.0623  17.1593  17.3172  17.4455  17.4861
    17.8129  17.8328  18.0607  18.1840  18.4088  18.5260  19.0375  19.1221

          k =-0.1155-0.0816 0.6000 ( 13046 PWs)   bands (ev):

  -106.7954-106.7954 -64.8838 -64.8836 -64.8835 -64.8835 -55.1046 -55.1044
   -55.1036 -55.1035 -55.1032 -55.1028 -36.2831 -36.2797 -36.2777 -36.2774
   -36.2740 -36.2735 -36.2734 -36.2726 -36.2726 -36.2721 -36.2719 -36.2713
    -5.6062  -5.2888  -4.7122  -4.5410  -4.5148  -4.4506  -4.4081  -4.4062
     1.0136   1.0951   1.2513   1.2624   1.3039   1.3311   1.4041   1.4041
     1.4520   1.4534   2.4944   2.6051   3.4143   3.5599   3.7562   3.9682
     4.1284   4.2063   4.3534   4.3745   4.5691   4.7770   4.9428   4.9817
     5.1085   5.2057   5.2670   5.5923   5.7117   6.0304   6.0438   6.2741
     6.4125   6.6381   6.7660   6.7992   6.8590   6.9014   6.9920   7.1149
     7.1225   7.1988   7.3764   7.4179   7.5361   7.7364   8.4781   9.0356
     9.1293   9.1555   9.3539   9.5446   9.6064   9.9648  10.7769  10.9239
    12.8626  13.2825  13.3088  13.5372  13.7565  13.8165  13.9309  14.0430
    14.6078  14.8221  15.0634  15.1271  15.4039  16.0701  16.2796  16.2831
    16.4121  16.6823  16.8387  17.1713  17.2169  17.2493  17.3791  17.6048
    17.8406  17.8554  18.0249  18.1765  18.5908  18.6725  18.9813  19.0341

          k =-0.3464-0.0000 0.6000 ( 13046 PWs)   bands (ev):

  -106.7954-106.7954 -64.8838 -64.8836 -64.8835 -64.8835 -55.1047 -55.1044
   -55.1036 -55.1035 -55.1032 -55.1028 -36.2831 -36.2797 -36.2777 -36.2774
   -36.2740 -36.2735 -36.2734 -36.2726 -36.2726 -36.2721 -36.2719 -36.2713
    -5.6062  -5.2888  -4.7122  -4.5410  -4.5148  -4.4506  -4.4081  -4.4062
     1.0136   1.0951   1.2513   1.2624   1.3039   1.3311   1.4041   1.4041
     1.4520   1.4534   2.4944   2.6051   3.4143   3.5599   3.7562   3.9682
     4.1284   4.2063   4.3534   4.3745   4.5691   4.7770   4.9428   4.9817
     5.1085   5.2057   5.2670   5.5923   5.7117   6.0304   6.0438   6.2741
     6.4125   6.6381   6.7660   6.7992   6.8590   6.9014   6.9920   7.1149
     7.1225   7.1988   7.3764   7.4179   7.5361   7.7364   8.4781   9.0356
     9.1293   9.1555   9.3539   9.5446   9.6064   9.9648  10.7769  10.9239
    12.8626  13.2825  13.3088  13.5372  13.7565  13.8165  13.9309  14.0430
    14.6078  14.8221  15.0634  15.1271  15.4039  16.0700  16.2796  16.2831
    16.4120  16.6823  16.8387  17.1713  17.2169  17.2493  17.3791  17.6048
    17.8406  17.8554  18.0249  18.1765  18.5908  18.6725  18.9813  19.0341

          k =-0.5774 0.0816 0.6000 ( 13044 PWs)   bands (ev):

  -106.7954-106.7954 -64.8838 -64.8836 -64.8835 -64.8835 -55.1049 -55.1046
   -55.1037 -55.1034 -55.1027 -55.1027 -36.2824 -36.2804 -36.2774 -36.2773
   -36.2740 -36.2738 -36.2733 -36.2728 -36.2726 -36.2721 -36.2718 -36.2716
    -5.5504  -5.3239  -4.7138  -4.6367  -4.4699  -4.4434  -4.4201  -4.3864
     1.0188   1.0597   1.2543   1.2825   1.2943   1.3092   1.4102   1.4152
     1.4437   1.4472   2.6000   2.7222   3.5650   3.6202   3.8067   3.8755
     4.1311   4.2425   4.3188   4.3829   4.4541   4.6512   4.9797   5.0096
     5.0726   5.2277   5.3062   5.3714   5.7546   5.9241   6.0671   6.2787
     6.3086   6.3482   6.7879   6.8734   6.9100   6.9395   7.0450   7.0835
     7.0916   7.1767   7.4230   7.4665   7.6071   7.7238   8.5158   8.8944
     9.0413   9.0501   9.2538   9.3711   9.7442   9.8556  11.1160  11.1571
    13.1073  13.3014  13.4947  13.7083  14.0496  14.1253  14.2289  14.4843
    14.6284  14.8151  15.0100  15.2623  15.3074  15.8520  15.9255  15.9624
    16.0751  16.2416  16.4590  17.0623  17.1593  17.3172  17.4455  17.4861
    17.8129  17.8328  18.0607  18.1840  18.4088  18.5260  19.0368  19.1184

          k = 0.3464-0.2449 0.6000 ( 13050 PWs)   bands (ev):

  -106.7954-106.7954 -64.8837 -64.8837 -64.8835 -64.8835 -55.1052 -55.1041
   -55.1038 -55.1032 -55.1032 -55.1030 -36.2818 -36.2810 -36.2773 -36.2771
   -36.2740 -36.2737 -36.2735 -36.2730 -36.2725 -36.2723 -36.2718 -36.2715
    -5.4737  -5.3981  -4.7137  -4.5783  -4.5702  -4.4654  -4.3842  -4.3712
     1.0163   1.0546   1.2324   1.2638   1.2982   1.3305   1.4227   1.4245
     1.4323   1.4374   2.7248   2.7504   3.5492   3.6609   3.8766   3.9187
     4.1387   4.3096   4.3231   4.4321   4.4505   4.6674   4.7805   4.8666
     4.9890   5.1907   5.2324   5.4541   5.6625   5.8815   6.0849   6.0960
     6.2568   6.6718   6.8155   6.8335   6.8612   6.9603   7.0055   7.0575
     7.1987   7.2277   7.4992   7.5187   7.5671   7.6558   8.4786   8.5627
     8.9445   8.9853   9.3385   9.5030   9.7572   9.9628  11.1129  11.2866
    13.0796  13.4577  13.6436  13.9130  14.0701  14.2565  14.2748  14.3921
    14.8154  15.0125  15.2187  15.4044  15.4711  15.7155  15.7961  15.7966
    15.8940  16.3183  16.6620  16.9379  17.0433  17.1424  17.3231  17.4580
    17.5415  17.6895  17.7741  18.2548  18.3660  18.3868  18.6211  18.7636

          k = 0.1155-0.1633 0.6000 ( 13044 PWs)   bands (ev):

  -106.7954-106.7954 -64.8838 -64.8836 -64.8835 -64.8835 -55.1049 -55.1046
   -55.1037 -55.1034 -55.1027 -55.1026 -36.2824 -36.2804 -36.2774 -36.2773
   -36.2740 -36.2738 -36.2733 -36.2728 -36.2726 -36.2721 -36.2718 -36.2716
    -5.5504  -5.3239  -4.7138  -4.6367  -4.4699  -4.4434  -4.4201  -4.3864
     1.0188   1.0597   1.2544   1.2825   1.2943   1.3092   1.4102   1.4152
     1.4437   1.4471   2.6000   2.7222   3.5650   3.6202   3.8067   3.8755
     4.1311   4.2424   4.3188   4.3830   4.4541   4.6512   4.9797   5.0096
     5.0726   5.2277   5.3062   5.3714   5.7546   5.9241   6.0671   6.2787
     6.3086   6.3482   6.7879   6.8734   6.9100   6.9395   7.0450   7.0835
     7.0916   7.1767   7.4230   7.4665   7.6071   7.7238   8.5158   8.8944
     9.0413   9.0501   9.2538   9.3711   9.7442   9.8556  11.1160  11.1571
    13.1073  13.3014  13.4947  13.7083  14.0496  14.1253  14.2290  14.4843
    14.6284  14.8151  15.0100  15.2623  15.3074  15.8520  15.9255  15.9625
    16.0751  16.2416  16.4590  17.0623  17.1593  17.3172  17.4455  17.4861
    17.8129  17.8328  18.0607  18.1840  18.4088  18.5260  19.0368  19.1184

          k = 0.0000 0.0000 0.4000 ( 13111 PWs)   bands (ev):

  -106.7954-106.7954 -64.8839 -64.8836 -64.8835 -64.8835 -55.1056 -55.1052
   -55.1047 -55.1044 -55.1043 -55.1037 -36.2841 -36.2790 -36.2780 -36.2778
   -36.2738 -36.2735 -36.2735 -36.2728 -36.2725 -36.2718 -36.2715 -36.2713
    -5.7549  -5.1516  -4.6574  -4.5142  -4.5004  -4.4540  -4.4469  -4.3960
     1.0610   1.1441   1.2608   1.2761   1.3031   1.3551   1.3815   1.3842
     1.4648   1.4660   2.0696   2.4692   3.0773   3.3054   3.5036   4.0374
     4.0918   4.1988   4.3946   4.5691   4.8433   5.0328   5.0339   5.2493
     5.3123   5.3768   5.3964   5.5899   5.8004   6.2198   6.2201   6.3375
     6.4414   6.5424   6.7234   6.7361   6.8498   6.8997   6.9148   7.0614
     7.0711   7.1134   7.1342   7.2811   7.7667   7.8668   8.4181   9.3270
     9.3625   9.3656   9.5529   9.6548   9.7526   9.9636  10.4191  10.6123
    12.2993  12.3977  12.4651  13.2363  13.4939  13.6345  13.8636  13.9416
    14.5084  14.6334  14.6959  15.0871  15.2535  15.6193  16.1786  16.3755
    16.4575  16.7483  16.8444  17.1490  17.5949  17.7008  18.0693  18.1211
    18.2112  18.5204  18.7772  18.9321  19.1636  19.4005  19.5745  19.7392

          k =-0.2309 0.0816 0.4000 ( 13041 PWs)   bands (ev):

  -106.7954-106.7954 -64.8838 -64.8836 -64.8835 -64.8835 -55.1044 -55.1039
   -55.1038 -55.1034 -55.1033 -55.1028 -36.2836 -36.2794 -36.2777 -36.2776
   -36.2738 -36.2736 -36.2733 -36.2729 -36.2726 -36.2718 -36.2717 -36.2713
    -5.6957  -5.2024  -4.6538  -4.5580  -4.5316  -4.4670  -4.4039  -4.3897
     1.0503   1.1013   1.2666   1.2844   1.3034   1.3112   1.3877   1.3941
     1.4603   1.4606   2.2555   2.5522   3.3063   3.3479   3.6545   4.0261
     4.1001   4.1602   4.3797   4.4848   4.7441   4.9545   5.0148   5.1089
     5.1568   5.2443   5.4049   5.6266   5.7434   5.8865   6.2629   6.2719
     6.3892   6.7538   6.7592   6.8007   6.8699   6.8896   6.9855   7.0282
     7.0817   7.1018   7.2060   7.2855   7.7729   7.8124   8.3322   9.0456
     9.2174   9.2978   9.5465   9.5633   9.7920  10.0053  10.6927  10.7329
    12.5700  12.7697  12.7914  13.2718  13.4725  13.8846  14.0478  14.2430
    14.3762  14.5503  14.7738  15.3480  15.4853  16.0766  16.1358  16.3966
    16.4796  16.6112  16.9283  17.0273  17.2089  17.3064  17.5264  17.8347
    17.9748  18.1831  18.3849  18.5199  18.6977  18.9565  19.3653  19.4608

          k =-0.4619 0.1633 0.4000 ( 13044 PWs)   bands (ev):

  -106.7954-106.7954 -64.8837 -64.8837 -64.8835 -64.8835 -55.1050 -55.1046
   -55.1037 -55.1034 -55.1027 -55.1026 -36.2824 -36.2804 -36.2774 -36.2773
   -36.2740 -36.2738 -36.2733 -36.2729 -36.2726 -36.2721 -36.2718 -36.2716
    -5.5504  -5.3239  -4.7138  -4.6367  -4.4699  -4.4434  -4.4201  -4.3864
     1.0188   1.0597   1.2544   1.2825   1.2943   1.3092   1.4102   1.4152
     1.4437   1.4472   2.6000   2.7222   3.5650   3.6202   3.8067   3.8755
     4.1311   4.2424   4.3188   4.3829   4.4541   4.6512   4.9797   5.0096
     5.0726   5.2277   5.3062   5.3714   5.7546   5.9241   6.0671   6.2787
     6.3086   6.3482   6.7879   6.8734   6.9099   6.9395   7.0451   7.0835
     7.0916   7.1767   7.4230   7.4665   7.6071   7.7238   8.5158   8.8944
     9.0413   9.0501   9.2538   9.3711   9.7442   9.8556  11.1160  11.1571
    13.1073  13.3014  13.4947  13.7083  14.0496  14.1253  14.2290  14.4843
    14.6284  14.8151  15.0100  15.2623  15.3074  15.8520  15.9255  15.9625
    16.0751  16.2416  16.4590  17.0623  17.1593  17.3172  17.4455  17.4861
    17.8129  17.8328  18.0607  18.1840  18.4088  18.5260  19.0368  19.1184

          k = 0.4619 0.3266 0.0000 ( 13019 PWs)   bands (ev):

  -106.7954-106.7954 -64.8838 -64.8836 -64.8835 -64.8835 -55.1040 -55.1040
   -55.1035 -55.1028 -55.1028 -55.1027 -36.2826 -36.2803 -36.2773 -36.2773
   -36.2739 -36.2736 -36.2732 -36.2732 -36.2729 -36.2721 -36.2715 -36.2715
    -5.5893  -5.2918  -4.5856  -4.5856  -4.5820  -4.5789  -4.3631  -4.3631
     1.0520   1.0521   1.2378   1.2378   1.3225   1.3225   1.4007   1.4107
     1.4466   1.4495   2.5416   2.6974   3.5879   3.5879   3.6280   3.9478
     4.2245   4.2616   4.3746   4.4530   4.7897   4.7982   4.7982   4.8421
     4.8421   5.2446   5.2823   5.4739   5.7082   5.7083   6.1082   6.1082
     6.6994   6.7437   6.7609   6.7609   6.8679   6.8679   6.9701   6.9812
     7.1821   7.2947   7.3874   7.3874   7.7331   7.7331   8.1573   8.6241
     8.9686   8.9686   9.6307   9.6307   9.9597   9.9694  10.9658  11.1285
    12.8591  13.1323  13.4380  13.4380  13.9497  13.9611  13.9611  14.1388
    15.0481  15.0481  15.1344  15.7782  16.0312  16.0312  16.0450  16.2194
    16.2571  16.3783  16.3783  16.8215  16.8215  17.0104  17.1030  17.2703
    17.3819  17.9063  18.0397  18.1965  18.3689  18.3689  19.0186  19.0187

          k = 0.2309 0.4082 0.0000 ( 13041 PWs)   bands (ev):

  -106.7954-106.7954 -64.8838 -64.8836 -64.8835 -64.8835 -55.1043 -55.1039
   -55.1039 -55.1033 -55.1033 -55.1028 -36.2836 -36.2794 -36.2777 -36.2777
   -36.2738 -36.2736 -36.2733 -36.2729 -36.2726 -36.2718 -36.2717 -36.2713
    -5.6957  -5.2024  -4.6538  -4.5579  -4.5316  -4.4670  -4.4039  -4.3897
     1.0503   1.1013   1.2666   1.2845   1.3034   1.3112   1.3876   1.3941
     1.4603   1.4606   2.2555   2.5522   3.3063   3.3479   3.6545   4.0261
     4.1001   4.1602   4.3797   4.4848   4.7441   4.9545   5.0148   5.1089
     5.1568   5.2443   5.4049   5.6266   5.7434   5.8865   6.2629   6.2719
     6.3892   6.7538   6.7592   6.8007   6.8699   6.8896   6.9855   7.0282
     7.0817   7.1017   7.2060   7.2855   7.7729   7.8124   8.3322   9.0456
     9.2174   9.2978   9.5464   9.5633   9.7920  10.0053  10.6927  10.7329
    12.5700  12.7698  12.7914  13.2718  13.4725  13.8846  14.0478  14.2430
    14.3762  14.5503  14.7738  15.3480  15.4853  16.0766  16.1357  16.3966
    16.4796  16.6112  16.9283  17.0274  17.2089  17.3064  17.5264  17.8347
    17.9748  18.1831  18.3849  18.5199  18.6977  18.9564  19.3653  19.4607

          k = 0.0000 0.4899 0.0000 ( 13067 PWs)   bands (ev):

  -106.7954-106.7954 -64.8838 -64.8836 -64.8835 -64.8835 -55.1047 -55.1047
   -55.1042 -55.1036 -55.1036 -55.1033 -36.2838 -36.2789 -36.2779 -36.2779
   -36.2738 -36.2735 -36.2735 -36.2728 -36.2728 -36.2718 -36.2718 -36.2711
    -5.6983  -5.2252  -4.6303  -4.5204  -4.5203  -4.4455  -4.4276  -4.4276
     1.0364   1.1216   1.2837   1.2837   1.3052   1.3052   1.3946   1.3946
     1.4615   1.4615   2.2057   2.5209   3.2655   3.2655   3.8733   3.9493
     3.9493   4.3791   4.3791   4.4259   4.7112   5.0095   5.0095   5.0265
     5.1053   5.1053   5.3216   5.7992   5.7992   6.0507   6.0507   6.5651
     6.6173   6.6679   6.6679   6.8523   6.8523   6.8660   6.9543   6.9543
     7.0672   7.2191   7.2747   7.2747   7.7091   7.7091   8.3951   9.2182
     9.2182   9.4118   9.4118   9.6927  10.0119  10.0119  10.3350  10.4432
    12.6316  12.6316  12.6793  13.1309  13.5987  13.6359  13.6360  13.9489
    14.5763  14.5763  15.1559  15.1559  15.2713  16.4346  16.4346  16.6534
    16.6534  16.9352  17.1327  17.2834  17.2834  17.6377  17.6377  17.6604
    18.0244  18.1310  18.1310  18.4040  18.4040  19.2264  19.3357  19.4456

          k = 0.9238 0.1633 0.0000 ( 13046 PWs)   bands (ev):

  -106.7954-106.7954 -64.8838 -64.8836 -64.8835 -64.8835 -55.1046 -55.1044
   -55.1036 -55.1035 -55.1033 -55.1028 -36.2830 -36.2797 -36.2776 -36.2775
   -36.2740 -36.2735 -36.2734 -36.2727 -36.2726 -36.2721 -36.2719 -36.2713
    -5.6062  -5.2888  -4.7122  -4.5410  -4.5148  -4.4506  -4.4081  -4.4062
     1.0136   1.0951   1.2513   1.2624   1.3039   1.3311   1.4041   1.4041
     1.4520   1.4534   2.4944   2.6051   3.4143   3.5599   3.7562   3.9682
     4.1284   4.2063   4.3534   4.3745   4.5691   4.7770   4.9428   4.9817
     5.1085   5.2057   5.2670   5.5923   5.7117   6.0304   6.0438   6.2741
     6.4125   6.6381   6.7660   6.7992   6.8590   6.9014   6.9920   7.1148
     7.1225   7.1988   7.3764   7.4179   7.5361   7.7364   8.4781   9.0356
     9.1293   9.1555   9.3539   9.5446   9.6064   9.9648  10.7769  10.9239
    12.8626  13.2825  13.3088  13.5373  13.7565  13.8165  13.9310  14.0430
    14.6078  14.8221  15.0634  15.1271  15.4039  16.0700  16.2796  16.2831
    16.4121  16.6823  16.8388  17.1712  17.2169  17.2493  17.3791  17.6049
    17.8406  17.8554  18.0249  18.1765  18.5908  18.6725  18.9813  19.0341

          k = 0.6928 0.2449 0.0000 ( 13050 PWs)   bands (ev):

  -106.7954-106.7954 -64.8837 -64.8837 -64.8835 -64.8835 -55.1051 -55.1041
   -55.1038 -55.1033 -55.1032 -55.1030 -36.2818 -36.2810 -36.2772 -36.2772
   -36.2740 -36.2736 -36.2735 -36.2729 -36.2725 -36.2723 -36.2719 -36.2715
    -5.4737  -5.3981  -4.7137  -4.5783  -4.5702  -4.4654  -4.3842  -4.3712
     1.0163   1.0546   1.2324   1.2638   1.2982   1.3305   1.4227   1.4245
     1.4323   1.4375   2.7248   2.7504   3.5492   3.6609   3.8766   3.9187
     4.1387   4.3096   4.3231   4.4321   4.4505   4.6675   4.7805   4.8666
     4.9890   5.1907   5.2324   5.4541   5.6625   5.8815   6.0849   6.0960
     6.2568   6.6718   6.8155   6.8335   6.8612   6.9603   7.0055   7.0575
     7.1987   7.2277   7.4992   7.5187   7.5672   7.6559   8.4786   8.5627
     8.9446   8.9853   9.3385   9.5030   9.7572   9.9628  11.1128  11.2866
    13.0796  13.4577  13.6436  13.9130  14.0701  14.2565  14.2748  14.3921
    14.8154  15.0125  15.2188  15.4044  15.4711  15.7155  15.7961  15.7966
    15.8940  16.3183  16.6620  16.9379  17.0433  17.1424  17.3231  17.4580
    17.5415  17.6895  17.7741  18.2548  18.3660  18.3868  18.6211  18.7637

          k = 0.0000 0.0000 0.8000 ( 13050 PWs)   bands (ev):

  -106.7954-106.7954 -64.8837 -64.8837 -64.8835 -64.8835 -55.1051 -55.1041
   -55.1038 -55.1033 -55.1032 -55.1030 -36.2819 -36.2810 -36.2773 -36.2771
   -36.2740 -36.2737 -36.2735 -36.2730 -36.2725 -36.2723 -36.2718 -36.2715
    -5.4737  -5.3981  -4.7137  -4.5783  -4.5702  -4.4654  -4.3842  -4.3712
     1.0163   1.0546   1.2324   1.2639   1.2982   1.3305   1.4227   1.4245
     1.4323   1.4374   2.7248   2.7504   3.5491   3.6609   3.8766   3.9187
     4.1387   4.3096   4.3231   4.4321   4.4505   4.6674   4.7806   4.8666
     4.9890   5.1907   5.2324   5.4541   5.6625   5.8815   6.0849   6.0960
     6.2568   6.6718   6.8155   6.8335   6.8612   6.9603   7.0055   7.0575
     7.1987   7.2277   7.4992   7.5187   7.5671   7.6558   8.4787   8.5627
     8.9445   8.9853   9.3385   9.5030   9.7572   9.9628  11.1128  11.2866
    13.0796  13.4576  13.6436  13.9130  14.0701  14.2565  14.2748  14.3921
    14.8154  15.0126  15.2188  15.4044  15.4711  15.7155  15.7961  15.7966
    15.8940  16.3183  16.6620  16.9379  17.0433  17.1424  17.3231  17.4580
    17.5415  17.6895  17.7741  18.2548  18.3660  18.3868  18.6211  18.7637

          k =-0.2309 0.0816 0.8000 ( 13044 PWs)   bands (ev):

  -106.7954-106.7954 -64.8838 -64.8836 -64.8835 -64.8835 -55.1048 -55.1046
   -55.1037 -55.1033 -55.1028 -55.1027 -36.2824 -36.2804 -36.2774 -36.2773
   -36.2740 -36.2738 -36.2733 -36.2728 -36.2726 -36.2721 -36.2718 -36.2716
    -5.5504  -5.3239  -4.7138  -4.6367  -4.4699  -4.4434  -4.4201  -4.3864
     1.0188   1.0597   1.2543   1.2825   1.2943   1.3092   1.4102   1.4152
     1.4437   1.4471   2.6000   2.7222   3.5650   3.6202   3.8067   3.8755
     4.1311   4.2425   4.3188   4.3830   4.4541   4.6512   4.9797   5.0096
     5.0726   5.2277   5.3062   5.3714   5.7546   5.9241   6.0671   6.2787
     6.3086   6.3482   6.7879   6.8734   6.9100   6.9395   7.0450   7.0835
     7.0916   7.1767   7.4230   7.4665   7.6071   7.7238   8.5158   8.8944
     9.0413   9.0501   9.2538   9.3711   9.7442   9.8556  11.1159  11.1571
    13.1073  13.3014  13.4947  13.7083  14.0496  14.1253  14.2290  14.4843
    14.6284  14.8151  15.0100  15.2623  15.3074  15.8520  15.9256  15.9624
    16.0751  16.2416  16.4590  17.0623  17.1593  17.3172  17.4455  17.4861
    17.8129  17.8328  18.0607  18.1840  18.4088  18.5260  19.0368  19.1184

          k =-0.4619 0.1633 0.8000 ( 13046 PWs)   bands (ev):

  -106.7954-106.7954 -64.8838 -64.8836 -64.8835 -64.8835 -55.1046 -55.1044
   -55.1037 -55.1035 -55.1032 -55.1028 -36.2830 -36.2797 -36.2777 -36.2774
   -36.2740 -36.2735 -36.2734 -36.2727 -36.2726 -36.2721 -36.2719 -36.2713
    -5.6062  -5.2888  -4.7122  -4.5410  -4.5148  -4.4506  -4.4081  -4.4062
     1.0136   1.0951   1.2513   1.2624   1.3039   1.3311   1.4041   1.4041
     1.4520   1.4534   2.4944   2.6051   3.4143   3.5599   3.7562   3.9682
     4.1284   4.2063   4.3534   4.3745   4.5691   4.7770   4.9428   4.9817
     5.1085   5.2057   5.2670   5.5923   5.7117   6.0304   6.0438   6.2741
     6.4125   6.6381   6.7660   6.7992   6.8590   6.9014   6.9920   7.1149
     7.1225   7.1988   7.3764   7.4179   7.5361   7.7364   8.4781   9.0356
     9.1293   9.1555   9.3539   9.5446   9.6064   9.9648  10.7769  10.9239
    12.8626  13.2825  13.3088  13.5373  13.7565  13.8165  13.9310  14.0430
    14.6078  14.8221  15.0634  15.1271  15.4039  16.0700  16.2796  16.2831
    16.4120  16.6823  16.8387  17.1712  17.2169  17.2493  17.3791  17.6048
    17.8406  17.8554  18.0249  18.1765  18.5908  18.6725  18.9813  19.0341

 ------ SPIN DOWN ----------


          k = 0.0000 0.0000 0.0000 ( 13107 PWs)   bands (ev):

  -106.8075-106.8074 -62.0195 -62.0191 -62.0190 -62.0190 -55.1174 -55.1174
   -55.1173 -55.1172 -55.1172 -55.1171 -33.3510 -33.3400 -33.3399 -33.3399
   -33.2701 -33.2701 -33.2701 -33.2698 -33.2698 -33.2663 -33.2663 -33.2663
    -6.0145  -5.1539  -4.6544  -4.6544  -4.6544  -4.5945  -4.5945  -4.5945
     1.2876   1.2876   1.2876   1.3490   1.3490   1.3606   1.3606   1.3606
     1.4777   1.4777   1.4939   2.0597   2.9926   2.9926   2.9926   4.1558
     4.1558   5.1684   5.1684   5.5235   5.5235   5.5235   5.8078   5.8078
     5.8078   6.2838   6.2838   6.2838   6.3413   6.3413   6.3413   7.3511
     7.7507   7.7507   7.7507   8.5414   8.8125   8.8125   9.3557   9.3557
     9.3557   9.7829   9.7829   9.7830   9.8510   9.8510   9.8510  10.3626
    11.0157  11.0157  11.0158  11.2358  11.2358  11.2358  11.4147  11.4147
    12.0128  12.0128  12.0128  12.8376  12.8376  12.8376  13.6296  14.6097
    14.6097  14.6097  15.5464  15.5464  16.1812  16.1812  16.1969  16.1969
    16.1969  16.6414  16.6414  16.6414  18.2766  18.7472  19.3447  19.3447
    19.3447  20.2820  20.2820  20.2820  20.2997  20.5238  20.5238  20.8778

          k =-0.2309 0.0816 0.0000 ( 13128 PWs)   bands (ev):

  -106.8075-106.8074 -62.0195 -62.0191 -62.0190 -62.0190 -55.1188 -55.1187
   -55.1182 -55.1171 -55.1170 -55.1164 -33.3503 -33.3407 -33.3399 -33.3399
   -33.2702 -33.2700 -33.2700 -33.2696 -33.2696 -33.2667 -33.2667 -33.2663
    -5.9473  -5.2030  -4.7274  -4.6597  -4.6597  -4.5911  -4.5911  -4.5812
     1.1613   1.2139   1.2827   1.2827   1.3390   1.3390   1.3668   1.3668
     1.4724   1.4725   1.8213   2.2648   3.1441   3.1441   3.3346   4.1692
     4.1692   5.0575   5.0732   5.0732   5.4577   5.4577   5.7258   5.7258
     5.7380   5.8077   6.1857   6.1857   6.3836   6.4135   6.4135   6.6741
     7.6321   7.6321   8.1148   8.8190   8.9758   8.9758   9.4401   9.4401
     9.5135   9.7905   9.7905   9.8365   9.8365   9.8435   9.9600  10.6909
    10.9310  10.9310  10.9952  10.9952  11.0899  11.1164  11.2758  11.2758
    12.1133  12.2304  12.2304  13.1370  13.4380  13.4380  13.6734  14.5205
    14.7290  14.7290  15.6887  15.6887  15.9270  15.9270  16.0064  16.4420
    16.4420  16.6087  16.9267  16.9268  18.6726  18.9357  19.2264  19.3245
    19.3245  19.4308  19.4309  19.6135  19.7363  19.8533  19.8533  20.3685

          k =-0.4619 0.1633 0.0000 ( 13067 PWs)   bands (ev):

  -106.8075-106.8074 -62.0194 -62.0192 -62.0190 -62.0190 -55.1175 -55.1174
   -55.1170 -55.1165 -55.1164 -55.1162 -33.3487 -33.3423 -33.3399 -33.3398
   -33.2702 -33.2699 -33.2699 -33.2689 -33.2689 -33.2674 -33.2674 -33.2663
    -5.7910  -5.3495  -4.7868  -4.6674  -4.6674  -4.5976  -4.5866  -4.5866
     1.0533   1.1206   1.2820   1.2820   1.3055   1.3055   1.3935   1.3935
     1.4595   1.4595   2.2816   2.5551   3.5067   3.5067   4.0889   4.0889
     4.1273   4.6071   4.8772   4.8772   4.9093   5.2816   5.2816   5.4999
     5.6282   5.6282   5.6566   6.0761   6.0761   6.5158   6.6712   6.6712
     7.3735   7.3735   8.6242   8.9686   9.1685   9.1685   9.5632   9.5632
     9.5645   9.8156   9.8156   9.8286   9.8304   9.8304  10.2680  10.6703
    10.6703  10.7433  10.7433  10.9390  10.9815  11.0895  11.1822  11.1822
    12.8240  12.8240  13.0148  13.4240  13.8927  14.0770  14.0770  14.4236
    14.8723  14.8723  15.5048  15.5048  15.7032  16.7917  16.7917  16.8972
    16.8973  17.2414  17.4240  17.4240  17.5798  17.8094  17.9985  17.9985
    18.3611  18.4343  18.4343  18.6444  18.6444  19.4881  19.4882  19.5480

          k = 0.1155 0.0816-0.2000 ( 13128 PWs)   bands (ev):

  -106.8075-106.8074 -62.0195 -62.0191 -62.0190 -62.0190 -55.1188 -55.1187
   -55.1182 -55.1171 -55.1170 -55.1163 -33.3503 -33.3407 -33.3399 -33.3399
   -33.2702 -33.2700 -33.2700 -33.2696 -33.2696 -33.2667 -33.2666 -33.2663
    -5.9473  -5.2030  -4.7274  -4.6598  -4.6597  -4.5911  -4.5911  -4.5812
     1.1613   1.2139   1.2827   1.2827   1.3390   1.3390   1.3668   1.3668
     1.4724   1.4725   1.8213   2.2648   3.1441   3.1441   3.3346   4.1692
     4.1692   5.0575   5.0732   5.0732   5.4577   5.4577   5.7258   5.7258
     5.7380   5.8077   6.1857   6.1857   6.3836   6.4135   6.4135   6.6741
     7.6321   7.6321   8.1148   8.8190   8.9758   8.9758   9.4401   9.4401
     9.5135   9.7905   9.7905   9.8365   9.8365   9.8435   9.9600  10.6909
    10.9310  10.9310  10.9953  10.9953  11.0899  11.1164  11.2758  11.2758
    12.1133  12.2304  12.2304  13.1369  13.4380  13.4380  13.6734  14.5205
    14.7290  14.7290  15.6887  15.6887  15.9270  15.9270  16.0065  16.4420
    16.4420  16.6087  16.9267  16.9267  18.6727  18.9357  19.2264  19.3245
    19.3245  19.4308  19.4309  19.6135  19.7363  19.8533  19.8533  20.3689

          k =-0.1155 0.1633-0.2000 ( 13047 PWs)   bands (ev):

  -106.8074-106.8074 -62.0194 -62.0191 -62.0190 -62.0190 -55.1173 -55.1172
   -55.1165 -55.1163 -55.1157 -55.1156 -33.3500 -33.3410 -33.3399 -33.3399
   -33.2701 -33.2699 -33.2699 -33.2698 -33.2694 -33.2666 -33.2666 -33.2666
    -5.9241  -5.2151  -4.6958  -4.6958  -4.6865  -4.6484  -4.5551  -4.5550
     1.1661   1.1703   1.2873   1.2873   1.3179   1.3179   1.3617   1.3670
     1.4702   1.4708   1.9357   2.3270   3.2661   3.2661   3.2754   4.1651
     4.2246   4.9260   5.0565   5.0966   5.3699   5.3699   5.6520   5.6520
     5.8142   5.8273   6.1495   6.2685   6.2685   6.3461   6.3461   6.6437
     7.4476   7.4476   8.3569   8.9321   8.9923   9.0755   9.3827   9.5514
     9.5514   9.8042   9.8043   9.8533   9.8578   9.8959   9.8959  10.6395
    10.8633  10.8633  10.9465  11.0680  11.0680  11.0865  11.1705  11.3065
    12.3269  12.3738  12.3738  13.1802  13.4672  13.4672  13.9711  14.4228
    14.8678  14.8678  15.5424  15.7682  15.9793  16.0690  16.0690  16.4538
    16.4635  16.5638  16.7567  16.7567  18.5709  18.9436  19.0223  19.0223
    19.0676  19.1465  19.3837  19.3837  19.5938  19.6781  20.1241  20.2692

          k =-0.3464 0.2449-0.2000 ( 13041 PWs)   bands (ev):

  -106.8074-106.8074 -62.0194 -62.0192 -62.0190 -62.0190 -55.1172 -55.1167
   -55.1167 -55.1162 -55.1160 -55.1157 -33.3485 -33.3425 -33.3398 -33.3398
   -33.2702 -33.2699 -33.2697 -33.2693 -33.2689 -33.2674 -33.2671 -33.2666
    -5.7890  -5.3270  -4.8040  -4.7072  -4.6822  -4.6254  -4.5582  -4.5463
     1.0661   1.1024   1.2647   1.2841   1.3010   1.3126   1.3876   1.3917
     1.4583   1.4589   2.3354   2.6013   3.5103   3.5873   3.8638   4.2199
     4.2327   4.3749   4.8227   4.9084   5.0286   5.2749   5.4221   5.4988
     5.6574   5.6931   5.7615   6.0295   6.1482   6.3642   6.4948   6.5473
     7.1471   7.2214   8.7250   9.1226   9.2157   9.2929   9.4890   9.6378
     9.6751   9.7695   9.7803   9.8353   9.8391   9.9698  10.1137  10.4668
    10.6426  10.6528  10.7577  10.8702  10.9772  11.1831  11.2115  11.3412
    12.8661  13.0171  13.0558  13.5588  13.8180  14.2854  14.4723  14.5870
    14.7911  14.9593  15.1854  15.7365  15.8342  16.3510  16.5314  16.6967
    16.7357  16.8455  17.1522  17.4273  17.4279  17.6002  17.7959  18.0043
    18.2621  18.5050  18.6241  18.7003  18.9236  19.2232  19.5133  19.6744

          k = 0.5774-0.0816-0.2000 ( 13046 PWs)   bands (ev):

  -106.8075-106.8074 -62.0193 -62.0192 -62.0190 -62.0190 -55.1175 -55.1172
   -55.1165 -55.1163 -55.1161 -55.1156 -33.3476 -33.3433 -33.3398 -33.3398
   -33.2702 -33.2699 -33.2697 -33.2688 -33.2685 -33.2679 -33.2675 -33.2666
    -5.7029  -5.4071  -4.8598  -4.6879  -4.6707  -4.6038  -4.5672  -4.5634
     1.0280   1.0975   1.2528   1.2613   1.3017   1.3278   1.4030   1.4034
     1.4502   1.4512   2.5712   2.6674   3.6601   3.7899   3.9634   4.1392
     4.3252   4.4319   4.6002   4.7878   4.9051   5.0043   5.2273   5.5472
     5.6138   5.6635   5.6730   5.9290   6.0563   6.4207   6.5504   6.7118
     6.8130   7.2364   8.9383   9.1014   9.2486   9.3771   9.6061   9.6195
     9.6987   9.7336   9.7778   9.8328   9.9348   9.9355  10.2324  10.3853
    10.5759  10.5962  10.6827  10.6900  10.8303  11.1047  11.3194  11.4363
    13.1170  13.4577  13.6457  13.8005  14.0207  14.3267  14.3282  14.5530
    14.8940  15.1039  15.4117  15.4442  15.7976  16.3639  16.5526  16.6254
    16.6343  16.9426  17.0942  17.5180  17.5753  17.6258  17.6355  17.8672
    18.0444  18.1890  18.1934  18.4541  18.8306  18.9091  19.1476  19.1766

          k = 0.3464 0.0000-0.2000 ( 13111 PWs)   bands (ev):

  -106.8075-106.8075 -62.0194 -62.0191 -62.0190 -62.0190 -55.1184 -55.1180
   -55.1174 -55.1172 -55.1171 -55.1166 -33.3491 -33.3418 -33.3399 -33.3399
   -33.2702 -33.2700 -33.2697 -33.2696 -33.2690 -33.2673 -33.2669 -33.2665
    -5.8457  -5.2811  -4.8069  -4.6702  -4.6459  -4.6075  -4.6073  -4.5502
     1.0784   1.1432   1.2626   1.2758   1.3036   1.3475   1.3813   1.3815
     1.4634   1.4641   2.1518   2.4985   3.3083   3.5366   3.7108   4.1739
     4.2074   4.4372   4.9522   5.0388   5.1568   5.3977   5.5198   5.6341
     5.6501   5.7695   5.8921   5.9895   6.2031   6.3739   6.5438   6.5499
     7.0710   7.5491   8.5413   9.0592   9.1305   9.2157   9.4533   9.5602
     9.7109   9.7114   9.7896   9.8436   9.8469   9.9060  10.1059  10.7149
    10.7352  10.7555  10.8015  10.8073  10.9507  11.1385  11.2126  11.2821
    12.5770  12.6509  12.7744  13.6655  13.7899  13.8920  14.0240  14.5846
    14.9096  14.9569  15.2143  15.4933  15.6794  15.9771  16.6008  16.6488
    16.7730  16.8158  17.2033  17.3069  17.8707  18.1173  18.2700  18.3562
    18.4966  18.7576  18.9184  19.1719  19.4796  19.6247  19.8202  19.9664

          k = 0.2309 0.1633-0.4000 ( 13067 PWs)   bands (ev):

  -106.8075-106.8074 -62.0194 -62.0191 -62.0191 -62.0190 -55.1176 -55.1174
   -55.1170 -55.1165 -55.1164 -55.1161 -33.3487 -33.3422 -33.3399 -33.3398
   -33.2703 -33.2699 -33.2699 -33.2689 -33.2689 -33.2675 -33.2674 -33.2663
    -5.7910  -5.3495  -4.7868  -4.6674  -4.6674  -4.5976  -4.5866  -4.5866
     1.0533   1.1206   1.2820   1.2820   1.3055   1.3055   1.3935   1.3935
     1.4595   1.4595   2.2816   2.5551   3.5067   3.5067   4.0889   4.0889
     4.1274   4.6071   4.8772   4.8772   4.9093   5.2816   5.2816   5.4999
     5.6282   5.6282   5.6565   6.0761   6.0761   6.5158   6.6712   6.6712
     7.3735   7.3735   8.6242   8.9686   9.1685   9.1685   9.5632   9.5632
     9.5645   9.8156   9.8156   9.8286   9.8304   9.8304  10.2679  10.6703
    10.6703  10.7433  10.7433  10.9390  10.9815  11.0895  11.1822  11.1822
    12.8240  12.8240  13.0148  13.4240  13.8926  14.0770  14.0770  14.4236
    14.8723  14.8723  15.5048  15.5048  15.7032  16.7917  16.7917  16.8972
    16.8973  17.2414  17.4240  17.4240  17.5798  17.8094  17.9985  17.9985
    18.3611  18.4343  18.4343  18.6444  18.6444  19.4881  19.4881  19.5481

          k = 0.0000 0.2449-0.4000 ( 13041 PWs)   bands (ev):

  -106.8074-106.8074 -62.0194 -62.0191 -62.0190 -62.0190 -55.1172 -55.1167
   -55.1167 -55.1162 -55.1161 -55.1156 -33.3485 -33.3424 -33.3399 -33.3398
   -33.2702 -33.2699 -33.2698 -33.2693 -33.2689 -33.2674 -33.2671 -33.2666
    -5.7890  -5.3270  -4.8040  -4.7072  -4.6822  -4.6254  -4.5582  -4.5463
     1.0661   1.1024   1.2647   1.2841   1.3010   1.3127   1.3876   1.3917
     1.4583   1.4589   2.3354   2.6013   3.5103   3.5873   3.8638   4.2198
     4.2327   4.3749   4.8227   4.9084   5.0286   5.2749   5.4221   5.4988
     5.6574   5.6931   5.7614   6.0295   6.1482   6.3642   6.4948   6.5473
     7.1471   7.2214   8.7250   9.1226   9.2157   9.2929   9.4890   9.6378
     9.6751   9.7695   9.7804   9.8353   9.8391   9.9698  10.1137  10.4668
    10.6426  10.6527  10.7577  10.8702  10.9772  11.1831  11.2115  11.3412
    12.8661  13.0171  13.0558  13.5588  13.8180  14.2854  14.4723  14.5870
    14.7911  14.9593  15.1854  15.7365  15.8342  16.3510  16.5314  16.6967
    16.7357  16.8455  17.1522  17.4273  17.4279  17.6002  17.7959  18.0043
    18.2621  18.5050  18.6241  18.7003  18.9236  19.2232  19.5133  19.6744

          k =-0.2309 0.3266-0.4000 ( 13019 PWs)   bands (ev):

  -106.8074-106.8074 -62.0193 -62.0192 -62.0190 -62.0190 -55.1168 -55.1168
   -55.1163 -55.1156 -55.1156 -55.1155 -33.3472 -33.3437 -33.3398 -33.3398
   -33.2700 -33.2699 -33.2694 -33.2694 -33.2686 -33.2675 -33.2672 -33.2671
    -5.6876  -5.4080  -4.7381  -4.7342  -4.7342  -4.7309  -4.5200  -4.5200
     1.0562   1.0637   1.2384   1.2384   1.3215   1.3216   1.4003   1.4081
     1.4448   1.4476   2.6270   2.7756   3.7593   3.8288   3.8288   4.1169
     4.4341   4.4665   4.7562   4.8336   5.0256   5.0826   5.0827   5.2303
     5.2303   5.5382   5.8803   5.9749   6.2443   6.2443   6.5591   6.5591
     6.9685   6.9685   8.8564   9.0664   9.3749   9.5368   9.6196   9.6644
     9.6644   9.7627   9.7627   9.8030   9.8739  10.0961  10.0961  10.1757
    10.4362  10.4362  10.9584  10.9585  11.0647  11.1126  11.2017  11.5034
    13.1815  13.3279  13.7596  13.7596  14.2605  14.2605  14.6963  14.8169
    15.1884  15.1884  15.3299  15.9994  16.4134  16.4134  16.4768  16.4908
    16.6627  16.7354  16.7354  17.0141  17.1018  17.1018  17.3992  17.4558
    17.6937  18.1547  18.2919  18.4572  18.5245  18.5245  19.2325  19.2325

          k = 0.6928 0.0000-0.4000 ( 13050 PWs)   bands (ev):

  -106.8075-106.8074 -62.0193 -62.0192 -62.0190 -62.0190 -55.1180 -55.1169
   -55.1166 -55.1161 -55.1160 -55.1159 -33.3460 -33.3449 -33.3398 -33.3398
   -33.2701 -33.2700 -33.2694 -33.2689 -33.2684 -33.2678 -33.2676 -33.2670
    -5.5776  -5.5073  -4.8600  -4.7261  -4.7251  -4.6215  -4.5407  -4.5290
     1.0264   1.0618   1.2341   1.2619   1.2957   1.3278   1.4213   1.4229
     1.4311   1.4353   2.8190   2.8360   3.7230   3.9093   4.0232   4.1492
     4.3610   4.5249   4.6371   4.6985   4.7171   4.9560   5.0829   5.3207
     5.3576   5.5871   5.8059   5.9455   6.1059   6.3172   6.5541   6.5971
     6.7238   6.9223   9.0675   9.0705   9.4033   9.6313   9.6544   9.6617
     9.6728   9.7032   9.8143   9.9037   9.9937  10.0478  10.0776  10.0987
    10.3273  10.4197  10.6959  10.8425  10.8978  11.0749  11.4265  11.6367
    13.3855  13.7000  14.0616  14.1813  14.5936  14.6018  14.6807  14.7687
    15.0755  15.2124  15.5125  15.6703  15.8141  16.0254  16.0345  16.1406
    16.2606  16.6519  16.9676  17.2916  17.3215  17.3525  17.5351  17.6961
    17.7409  17.9431  17.9804  18.5761  18.6364  18.6412  18.9064  18.9676

          k = 0.4619 0.0816-0.4000 ( 13046 PWs)   bands (ev):

  -106.8075-106.8074 -62.0194 -62.0192 -62.0190 -62.0190 -55.1175 -55.1172
   -55.1164 -55.1163 -55.1160 -55.1157 -33.3476 -33.3433 -33.3398 -33.3398
   -33.2702 -33.2699 -33.2697 -33.2688 -33.2684 -33.2679 -33.2675 -33.2666
    -5.7029  -5.4071  -4.8598  -4.6879  -4.6707  -4.6038  -4.5672  -4.5634
     1.0280   1.0975   1.2528   1.2613   1.3017   1.3278   1.4030   1.4034
     1.4502   1.4512   2.5712   2.6674   3.6601   3.7899   3.9634   4.1392
     4.3252   4.4319   4.6002   4.7878   4.9051   5.0043   5.2273   5.5472
     5.6138   5.6635   5.6730   5.9290   6.0563   6.4207   6.5504   6.7118
     6.8130   7.2365   8.9383   9.1014   9.2486   9.3771   9.6061   9.6195
     9.6988   9.7336   9.7778   9.8328   9.9348   9.9355  10.2324  10.3853
[...]
     1.0264   1.0618   1.2340   1.2619   1.2957   1.3278   1.4213   1.4229
     1.4311   1.4353   2.8190   2.8360   3.7230   3.9093   4.0232   4.1492
     4.3610   4.5249   4.6371   4.6985   4.7171   4.9560   5.0829   5.3207
     5.3576   5.5871   5.8059   5.9455   6.1059   6.3172   6.5541   6.5971
     6.7238   6.9223   9.0675   9.0705   9.4033   9.6313   9.6544   9.6617
     9.6728   9.7032   9.8143   9.9037   9.9937  10.0478  10.0776  10.0987
    10.3273  10.4196  10.6959  10.8425  10.8978  11.0749  11.4265  11.6367
    13.3855  13.7000  14.0616  14.1813  14.5936  14.6018  14.6807  14.7687
    15.0755  15.2124  15.5125  15.6703  15.8141  16.0254  16.0345  16.1406
    16.2606  16.6519  16.9676  17.2916  17.3215  17.3525  17.5351  17.6962
    17.7409  17.9431  17.9804  18.5761  18.6364  18.6412  18.9064  18.9676

          k = 0.1155-0.1633 0.6000 ( 13044 PWs)   bands (ev):

  -106.8075-106.8074 -62.0193 -62.0192 -62.0190 -62.0190 -55.1177 -55.1174
   -55.1165 -55.1162 -55.1155 -55.1155 -33.3469 -33.3440 -33.3398 -33.3398
   -33.2702 -33.2700 -33.2694 -33.2690 -33.2683 -33.2681 -33.2673 -33.2669
    -5.6503  -5.4382  -4.8604  -4.7842  -4.6254  -4.6008  -4.5751  -4.5437
     1.0310   1.0656   1.2535   1.2814   1.2916   1.3068   1.4097   1.4133
     1.4422   1.4450   2.6893   2.8000   3.7663   3.8347   4.0156   4.0859
     4.3328   4.4580   4.5920   4.6758   4.7547   4.9261   5.3994   5.4448
     5.5380   5.6622   5.7672   5.8298   6.1705   6.2862   6.5260   6.5489
     6.7311   7.0001   9.0318   9.2001   9.4191   9.4483   9.5106   9.6618
     9.7299   9.8030   9.8170   9.8581   9.9622  10.0261  10.0893  10.2604
    10.3764  10.4313  10.6722  10.7383  10.8797  11.0017  11.5434  11.5560
    13.3510  13.5341  13.9068  13.9810  14.3714  14.5663  14.6987  14.7887
    15.0568  15.0678  15.3188  15.5420  15.6867  16.1004  16.2504  16.3113
    16.3425  16.5457  16.8268  17.3076  17.3988  17.6197  17.6313  17.7267
    17.9878  18.1175  18.3535  18.4831  18.7237  18.7521  19.2334  19.2968

          k = 0.0000 0.0000 0.4000 ( 13111 PWs)   bands (ev):

  -106.8075-106.8075 -62.0194 -62.0191 -62.0191 -62.0190 -55.1185 -55.1179
   -55.1175 -55.1171 -55.1171 -55.1166 -33.3491 -33.3418 -33.3399 -33.3398
   -33.2702 -33.2700 -33.2697 -33.2696 -33.2690 -33.2673 -33.2669 -33.2665
    -5.8457  -5.2811  -4.8069  -4.6702  -4.6459  -4.6075  -4.6073  -4.5502
     1.0784   1.1433   1.2626   1.2758   1.3036   1.3475   1.3812   1.3815
     1.4634   1.4641   2.1518   2.4985   3.3083   3.5366   3.7108   4.1739
     4.2074   4.4372   4.9522   5.0388   5.1568   5.3977   5.5198   5.6341
     5.6501   5.7695   5.8921   5.9895   6.2031   6.3739   6.5439   6.5499
     7.0710   7.5491   8.5413   9.0592   9.1305   9.2157   9.4533   9.5601
     9.7109   9.7114   9.7896   9.8436   9.8469   9.9060  10.1059  10.7150
    10.7352  10.7555  10.8015  10.8072  10.9507  11.1385  11.2126  11.2821
    12.5770  12.6509  12.7745  13.6655  13.7899  13.8920  14.0240  14.5846
    14.9096  14.9569  15.2143  15.4933  15.6794  15.9771  16.6008  16.6488
    16.7730  16.8158  17.2033  17.3069  17.8707  18.1174  18.2700  18.3562
    18.4966  18.7576  18.9184  19.1719  19.4795  19.6247  19.8202  19.9126

          k =-0.2309 0.0816 0.4000 ( 13041 PWs)   bands (ev):

  -106.8074-106.8074 -62.0194 -62.0191 -62.0190 -62.0190 -55.1171 -55.1168
   -55.1167 -55.1162 -55.1161 -55.1156 -33.3485 -33.3424 -33.3399 -33.3398
   -33.2702 -33.2699 -33.2697 -33.2693 -33.2689 -33.2674 -33.2671 -33.2666
    -5.7890  -5.3270  -4.8040  -4.7072  -4.6822  -4.6254  -4.5581  -4.5463
     1.0661   1.1024   1.2647   1.2841   1.3010   1.3126   1.3876   1.3917
     1.4583   1.4589   2.3354   2.6013   3.5103   3.5873   3.8638   4.2198
     4.2327   4.3749   4.8227   4.9084   5.0286   5.2749   5.4221   5.4988
     5.6574   5.6931   5.7615   6.0295   6.1482   6.3642   6.4948   6.5473
     7.1471   7.2214   8.7250   9.1226   9.2157   9.2929   9.4890   9.6377
     9.6751   9.7695   9.7804   9.8353   9.8391   9.9698  10.1137  10.4668
    10.6426  10.6528  10.7577  10.8702  10.9772  11.1831  11.2115  11.3412
    12.8661  13.0171  13.0558  13.5588  13.8180  14.2854  14.4723  14.5870
    14.7911  14.9593  15.1854  15.7365  15.8342  16.3510  16.5314  16.6967
    16.7357  16.8455  17.1522  17.4273  17.4279  17.6002  17.7959  18.0043
    18.2621  18.5050  18.6241  18.7003  18.9236  19.2232  19.5133  19.6744

          k =-0.4619 0.1633 0.4000 ( 13044 PWs)   bands (ev):

  -106.8075-106.8074 -62.0193 -62.0192 -62.0190 -62.0190 -55.1177 -55.1174
   -55.1165 -55.1161 -55.1156 -55.1155 -33.3469 -33.3441 -33.3398 -33.3398
   -33.2702 -33.2700 -33.2694 -33.2691 -33.2683 -33.2680 -33.2673 -33.2669
    -5.6503  -5.4382  -4.8604  -4.7842  -4.6254  -4.6008  -4.5751  -4.5437
     1.0310   1.0656   1.2535   1.2814   1.2916   1.3068   1.4097   1.4132
     1.4423   1.4450   2.6893   2.8000   3.7663   3.8347   4.0156   4.0859
     4.3328   4.4580   4.5920   4.6758   4.7547   4.9261   5.3993   5.4448
     5.5380   5.6622   5.7672   5.8298   6.1705   6.2862   6.5260   6.5489
     6.7311   7.0001   9.0318   9.2001   9.4191   9.4483   9.5106   9.6617
     9.7299   9.8030   9.8170   9.8581   9.9621  10.0261  10.0893  10.2604
    10.3764  10.4313  10.6722  10.7383  10.8797  11.0018  11.5434  11.5560
    13.3510  13.5341  13.9068  13.9810  14.3714  14.5663  14.6987  14.7887
    15.0568  15.0678  15.3188  15.5420  15.6867  16.1004  16.2504  16.3114
    16.3425  16.5457  16.8268  17.3076  17.3988  17.6197  17.6313  17.7267
    17.9878  18.1175  18.3535  18.4831  18.7237  18.7521  19.2334  19.2968

          k = 0.4619 0.3266 0.0000 ( 13019 PWs)   bands (ev):

  -106.8074-106.8074 -62.0193 -62.0192 -62.0190 -62.0190 -55.1168 -55.1168
   -55.1162 -55.1156 -55.1156 -55.1154 -33.3472 -33.3437 -33.3398 -33.3398
   -33.2700 -33.2699 -33.2694 -33.2694 -33.2686 -33.2675 -33.2672 -33.2671
    -5.6876  -5.4080  -4.7381  -4.7342  -4.7342  -4.7309  -4.5200  -4.5200
     1.0562   1.0637   1.2384   1.2384   1.3216   1.3216   1.4004   1.4081
     1.4448   1.4476   2.6270   2.7756   3.7593   3.8288   3.8288   4.1169
     4.4341   4.4665   4.7562   4.8336   5.0256   5.0826   5.0826   5.2303
     5.2303   5.5382   5.8803   5.9749   6.2443   6.2443   6.5591   6.5591
     6.9685   6.9685   8.8564   9.0664   9.3749   9.5368   9.6196   9.6644
     9.6644   9.7627   9.7627   9.8030   9.8739  10.0961  10.0961  10.1757
    10.4362  10.4362  10.9584  10.9585  11.0647  11.1126  11.2018  11.5034
    13.1815  13.3279  13.7596  13.7596  14.2605  14.2605  14.6963  14.8168
    15.1884  15.1884  15.3299  15.9994  16.4134  16.4134  16.4768  16.4908
    16.6627  16.7354  16.7354  17.0141  17.1018  17.1018  17.3992  17.4557
    17.6938  18.1547  18.2919  18.4572  18.5245  18.5245  19.2325  19.2326

          k = 0.2309 0.4082 0.0000 ( 13041 PWs)   bands (ev):

  -106.8074-106.8074 -62.0194 -62.0191 -62.0190 -62.0190 -55.1172 -55.1168
   -55.1166 -55.1162 -55.1161 -55.1156 -33.3485 -33.3424 -33.3399 -33.3398
   -33.2702 -33.2699 -33.2698 -33.2693 -33.2688 -33.2674 -33.2671 -33.2666
    -5.7890  -5.3270  -4.8040  -4.7072  -4.6822  -4.6254  -4.5581  -4.5463
     1.0661   1.1024   1.2647   1.2841   1.3010   1.3126   1.3876   1.3917
     1.4583   1.4588   2.3354   2.6013   3.5103   3.5873   3.8638   4.2198
     4.2327   4.3749   4.8227   4.9084   5.0286   5.2749   5.4221   5.4988
     5.6574   5.6931   5.7614   6.0295   6.1482   6.3642   6.4948   6.5473
     7.1471   7.2214   8.7250   9.1226   9.2157   9.2929   9.4889   9.6378
     9.6751   9.7695   9.7804   9.8353   9.8391   9.9698  10.1137  10.4668
    10.6426  10.6527  10.7577  10.8702  10.9772  11.1831  11.2115  11.3412
    12.8661  13.0171  13.0557  13.5588  13.8180  14.2854  14.4723  14.5870
    14.7911  14.9593  15.1854  15.7365  15.8342  16.3510  16.5314  16.6967
    16.7357  16.8455  17.1522  17.4273  17.4279  17.6002  17.7959  18.0043
    18.2621  18.5050  18.6241  18.7003  18.9236  19.2232  19.5133  19.6743

          k = 0.0000 0.4899 0.0000 ( 13067 PWs)   bands (ev):

  -106.8075-106.8074 -62.0194 -62.0191 -62.0191 -62.0190 -55.1175 -55.1175
   -55.1169 -55.1165 -55.1165 -55.1160 -33.3487 -33.3422 -33.3399 -33.3399
   -33.2703 -33.2699 -33.2699 -33.2689 -33.2689 -33.2675 -33.2674 -33.2663
    -5.7910  -5.3495  -4.7867  -4.6674  -4.6674  -4.5976  -4.5866  -4.5866
     1.0533   1.1206   1.2820   1.2820   1.3055   1.3055   1.3935   1.3935
     1.4595   1.4595   2.2816   2.5551   3.5067   3.5067   4.0889   4.0889
     4.1274   4.6071   4.8772   4.8772   4.9093   5.2816   5.2816   5.4999
     5.6282   5.6282   5.6565   6.0761   6.0761   6.5158   6.6712   6.6712
     7.3735   7.3735   8.6242   8.9686   9.1685   9.1685   9.5632   9.5632
     9.5645   9.8156   9.8156   9.8286   9.8304   9.8304  10.2679  10.6703
    10.6703  10.7433  10.7433  10.9390  10.9815  11.0895  11.1822  11.1822
    12.8240  12.8240  13.0148  13.4240  13.8926  14.0770  14.0770  14.4236
    14.8723  14.8723  15.5048  15.5048  15.7032  16.7917  16.7917  16.8972
    16.8972  17.2414  17.4240  17.4240  17.5798  17.8094  17.9985  17.9985
    18.3611  18.4343  18.4343  18.6444  18.6444  19.4880  19.4881  19.5481

          k = 0.9238 0.1633 0.0000 ( 13046 PWs)   bands (ev):

  -106.8075-106.8074 -62.0194 -62.0192 -62.0190 -62.0190 -55.1175 -55.1173
   -55.1164 -55.1164 -55.1159 -55.1156 -33.3476 -33.3433 -33.3398 -33.3398
   -33.2703 -33.2699 -33.2697 -33.2688 -33.2684 -33.2679 -33.2675 -33.2666
    -5.7029  -5.4071  -4.8598  -4.6879  -4.6707  -4.6038  -4.5672  -4.5634
     1.0280   1.0975   1.2528   1.2613   1.3017   1.3278   1.4030   1.4034
     1.4502   1.4512   2.5712   2.6674   3.6601   3.7899   3.9634   4.1392
     4.3252   4.4319   4.6002   4.7878   4.9051   5.0043   5.2273   5.5472
     5.6138   5.6635   5.6730   5.9290   6.0563   6.4207   6.5504   6.7118
     6.8130   7.2364   8.9383   9.1014   9.2486   9.3771   9.6061   9.6195
     9.6988   9.7336   9.7778   9.8328   9.9348   9.9355  10.2324  10.3853
    10.5759  10.5962  10.6827  10.6900  10.8303  11.1046  11.3194  11.4363
    13.1170  13.4577  13.6457  13.8004  14.0207  14.3267  14.3281  14.5530
    14.8940  15.1039  15.4117  15.4442  15.7976  16.3639  16.5526  16.6254
    16.6343  16.9426  17.0942  17.5180  17.5753  17.6258  17.6355  17.8672
    18.0444  18.1890  18.1934  18.4541  18.8307  18.9091  19.1476  19.1766

          k = 0.6928 0.2449 0.0000 ( 13050 PWs)   bands (ev):

  -106.8075-106.8074 -62.0193 -62.0192 -62.0190 -62.0190 -55.1179 -55.1169
   -55.1166 -55.1161 -55.1160 -55.1158 -33.3460 -33.3449 -33.3398 -33.3398
   -33.2701 -33.2700 -33.2694 -33.2689 -33.2684 -33.2678 -33.2676 -33.2670
    -5.5776  -5.5073  -4.8600  -4.7261  -4.7251  -4.6215  -4.5407  -4.5290
     1.0264   1.0618   1.2341   1.2619   1.2957   1.3278   1.4214   1.4228
     1.4312   1.4352   2.8190   2.8360   3.7230   3.9093   4.0232   4.1492
     4.3610   4.5249   4.6371   4.6985   4.7171   4.9560   5.0829   5.3207
     5.3576   5.5871   5.8059   5.9455   6.1059   6.3172   6.5541   6.5971
     6.7238   6.9223   9.0675   9.0705   9.4033   9.6313   9.6544   9.6617
     9.6728   9.7032   9.8143   9.9037   9.9937  10.0478  10.0776  10.0987
    10.3273  10.4197  10.6959  10.8425  10.8978  11.0749  11.4265  11.6367
    13.3855  13.7000  14.0616  14.1813  14.5936  14.6018  14.6807  14.7687
    15.0754  15.2124  15.5124  15.6702  15.8141  16.0255  16.0345  16.1406
    16.2606  16.6519  16.9676  17.2916  17.3215  17.3525  17.5351  17.6962
    17.7409  17.9431  17.9804  18.5761  18.6364  18.6412  18.9064  18.9676

          k = 0.0000 0.0000 0.8000 ( 13050 PWs)   bands (ev):

  -106.8075-106.8074 -62.0193 -62.0192 -62.0190 -62.0190 -55.1179 -55.1169
   -55.1166 -55.1161 -55.1160 -55.1158 -33.3460 -33.3449 -33.3398 -33.3398
   -33.2701 -33.2700 -33.2694 -33.2689 -33.2684 -33.2678 -33.2675 -33.2671
    -5.5776  -5.5073  -4.8600  -4.7261  -4.7251  -4.6215  -4.5407  -4.5290
     1.0264   1.0617   1.2341   1.2619   1.2957   1.3278   1.4214   1.4228
     1.4312   1.4352   2.8190   2.8360   3.7230   3.9093   4.0232   4.1492
     4.3610   4.5249   4.6371   4.6985   4.7171   4.9560   5.0829   5.3207
     5.3576   5.5871   5.8059   5.9455   6.1059   6.3172   6.5541   6.5971
     6.7238   6.9223   9.0675   9.0705   9.4033   9.6313   9.6544   9.6617
     9.6728   9.7032   9.8143   9.9037   9.9937  10.0478  10.0776  10.0987
    10.3273  10.4196  10.6959  10.8425  10.8978  11.0749  11.4265  11.6367
    13.3855  13.7000  14.0616  14.1813  14.5936  14.6018  14.6807  14.7687
    15.0755  15.2124  15.5124  15.6702  15.8141  16.0255  16.0345  16.1406
    16.2606  16.6519  16.9676  17.2916  17.3215  17.3524  17.5351  17.6962
    17.7409  17.9431  17.9804  18.5761  18.6364  18.6412  18.9064  18.9676

          k =-0.2309 0.0816 0.8000 ( 13044 PWs)   bands (ev):

  -106.8075-106.8074 -62.0193 -62.0192 -62.0190 -62.0190 -55.1177 -55.1174
   -55.1165 -55.1162 -55.1155 -55.1154 -33.3469 -33.3440 -33.3398 -33.3398
   -33.2702 -33.2700 -33.2694 -33.2690 -33.2683 -33.2681 -33.2673 -33.2669
    -5.6503  -5.4382  -4.8604  -4.7842  -4.6254  -4.6008  -4.5750  -4.5437
     1.0310   1.0656   1.2535   1.2814   1.2916   1.3068   1.4097   1.4133
     1.4422   1.4450   2.6893   2.8000   3.7663   3.8347   4.0156   4.0859
     4.3328   4.4580   4.5920   4.6758   4.7547   4.9261   5.3993   5.4448
     5.5380   5.6622   5.7672   5.8298   6.1705   6.2862   6.5260   6.5489
     6.7311   7.0001   9.0318   9.2001   9.4191   9.4483   9.5106   9.6618
     9.7299   9.8030   9.8170   9.8581   9.9622  10.0261  10.0893  10.2604
    10.3764  10.4313  10.6722  10.7383  10.8797  11.0017  11.5434  11.5560
    13.3510  13.5341  13.9068  13.9810  14.3714  14.5663  14.6987  14.7887
    15.0568  15.0678  15.3188  15.5420  15.6867  16.1004  16.2504  16.3113
    16.3425  16.5457  16.8268  17.3076  17.3988  17.6197  17.6313  17.7267
    17.9878  18.1176  18.3535  18.4831  18.7237  18.7521  19.2334  19.2968

          k =-0.4619 0.1633 0.8000 ( 13046 PWs)   bands (ev):

  -106.8075-106.8074 -62.0194 -62.0191 -62.0190 -62.0190 -55.1175 -55.1173
   -55.1164 -55.1163 -55.1160 -55.1157 -33.3477 -33.3433 -33.3399 -33.3398
   -33.2703 -33.2700 -33.2697 -33.2688 -33.2684 -33.2679 -33.2676 -33.2666
    -5.7029  -5.4071  -4.8598  -4.6879  -4.6707  -4.6038  -4.5672  -4.5634
     1.0280   1.0975   1.2527   1.2613   1.3017   1.3278   1.4030   1.4034
     1.4502   1.4512   2.5712   2.6674   3.6601   3.7899   3.9634   4.1392
     4.3252   4.4319   4.6002   4.7878   4.9051   5.0043   5.2273   5.5472
     5.6138   5.6635   5.6730   5.9290   6.0563   6.4207   6.5504   6.7118
     6.8130   7.2364   8.9383   9.1014   9.2486   9.3771   9.6061   9.6195
     9.6988   9.7336   9.7778   9.8328   9.9348   9.9355  10.2324  10.3853
    10.5759  10.5962  10.6827  10.6900  10.8303  11.1046  11.3194  11.4363
    13.1169  13.4577  13.6457  13.8005  14.0207  14.3267  14.3281  14.5530
    14.8940  15.1039  15.4117  15.4442  15.7976  16.3639  16.5526  16.6254
    16.6343  16.9426  17.0942  17.5180  17.5753  17.6258  17.6354  17.8672
    18.0444  18.1890  18.1934  18.4541  18.8307  18.9091  19.1476  19.1766

     the Fermi energy is     8.0050 ev

!    total energy              =   -1502.15019513 Ry
     estimated scf accuracy    <       0.00000005 Ry
     smearing contrib. (-TS)   =       0.22142972 Ry
     internal energy E=F+TS    =   -1502.37162485 Ry

     The total energy is F=E-TS. E is the sum of the following terms:
     one-electron contribution =    -907.51750473 Ry
     hartree contribution      =     489.28692569 Ry
     xc contribution           =    -219.20372147 Ry
     ewald contribution        =    -864.93732435 Ry

     total magnetization       =    10.40 Bohr mag/cell
     absolute magnetization    =    13.64 Bohr mag/cell

     convergence has been achieved in  17 iterations

     Forces acting on atoms (cartesian axes, Ry/au):

     atom    1 type  1   force =     0.00000000    0.00000000    0.00000000
     atom    2 type  1   force =     0.00000000    0.00000000    0.00000000
     atom    3 type  1   force =     0.00000000    0.00000000    0.00000000
     atom    4 type  1   force =     0.00000000    0.00000000    0.00000000
     atom    5 type  2   force =    -0.00000049    0.00001811    0.00000000
     atom    6 type  2   force =     0.00000049   -0.00001811    0.00000000
     atom    7 type  3   force =     0.00000055    0.00000051   -0.00000818
     atom    8 type  3   force =     0.00000549    0.00000382    0.00000000
     atom    9 type  3   force =    -0.00000055   -0.00000051    0.00000818
     atom   10 type  3   force =     0.00000055    0.00000051    0.00000818
     atom   11 type  3   force =     0.00000531    0.00000248    0.00000000
     atom   12 type  3   force =    -0.00000055   -0.00000051   -0.00000818
     atom   13 type  3   force =    -0.00000531   -0.00000248    0.00000000
     atom   14 type  3   force =    -0.00000549   -0.00000382    0.00000000

     Total force =     0.000033     Total SCF correction =     0.000216
     SCF correction compared to forces is large: reduce conv_thr to get better values


     Computing stress (Cartesian axis) and pressure

          total   stress  (Ry/bohr**3)                   (kbar)     P=      -25.79
  -0.00017535   0.00000001   0.00000000          -25.80        0.00        0.00
   0.00000001  -0.00017535   0.00000000            0.00      -25.80        0.00
   0.00000000   0.00000000  -0.00017533            0.00        0.00      -25.79


     Writing output data file /home/hafidz/Documents/PKL/Kalkulasi-DFT/Project-Shift-Current-Multi-Weyl-Semimetal/Cr2HgSe4/Primitive-2/outdir/Cr2HgSe4-SC-Project-2.save/

     init_run     :     82.41s CPU     84.23s WALL (       1 calls)
     electrons    :   4428.04s CPU   4499.12s WALL (       1 calls)
     forces       :     38.12s CPU     38.35s WALL (       1 calls)
     stress       :     91.68s CPU     92.34s WALL (       1 calls)

     Called by init_run:
     wfcinit      :     73.16s CPU     74.67s WALL (       1 calls)
     potinit      :      3.18s CPU      3.28s WALL (       1 calls)
     hinit0       :      5.40s CPU      5.41s WALL (       1 calls)

     Called by electrons:
     c_bands      :   3966.84s CPU   4020.31s WALL (      17 calls)
     sum_band     :    443.89s CPU    458.37s WALL (      17 calls)
     v_of_rho     :      7.43s CPU      7.66s WALL (      18 calls)
     newd         :      9.29s CPU     12.40s WALL (      18 calls)
     mix_rho      :      0.89s CPU      0.91s WALL (      17 calls)

     Called by c_bands:
     init_us_2    :     12.43s CPU     12.47s WALL (    2886 calls)
     cegterg      :   3907.55s CPU   3960.92s WALL (    1326 calls)

     Called by *egterg:
     cdiaghg      :    238.01s CPU    239.80s WALL (    4981 calls)
     h_psi        :   1901.52s CPU   1952.98s WALL (    5059 calls)
     s_psi        :    309.51s CPU    309.67s WALL (    5059 calls)
     g_psi        :      7.77s CPU      7.78s WALL (    3655 calls)

     Called by h_psi:
     h_psi:calbec :    313.87s CPU    315.02s WALL (    5059 calls)
     vloc_psi     :   1271.66s CPU   1321.79s WALL (    5059 calls)
     add_vuspsi   :    310.61s CPU    310.79s WALL (    5059 calls)

     General routines
     calbec       :    480.95s CPU    482.47s WALL (    6775 calls)
     fft          :      3.96s CPU      4.21s WALL (     488 calls)
     ffts         :      0.21s CPU      0.23s WALL (      70 calls)
     fftw         :   1302.20s CPU   1353.47s WALL (  908634 calls)
     interpolate  :      0.51s CPU      0.53s WALL (      36 calls)

     Parallel routines
     fft_scatt_xy :    247.44s CPU    257.05s WALL (  909192 calls)
     fft_scatt_yz :    248.08s CPU    260.32s WALL (  909192 calls)

     PWSCF        :      1h17m CPU      1h18m WALL


   This run was terminated on:  22: 3: 8   7Jul2024            

=------------------------------------------------------------------------------=
   JOB DONE.
=------------------------------------------------------------------------------=
