
     Program PWSCF v.6.7MaX starts on 16Jul2024 at  3:30:23 

     This program is part of the open-source Quantum ESPRESSO suite
     for quantum simulation of materials; please cite
         "P. Giannozzi et al., J. Phys.:Condens. Matter 21 395502 (2009);
         "P. Giannozzi et al., J. Phys.:Condens. Matter 29 465901 (2017);
          URL http://www.quantum-espresso.org", 
     in publications or presentations arising from this work. More details at
     http://www.quantum-espresso.org/quote

     Parallel version (MPI), running on     4 processors

     MPI processes distributed on     1 nodes
     R & G space division:  proc/nbgrp/npool/nimage =       4
     Waiting for input...
     Reading input from standard input

     Current dimensions of program PWSCF are:
     Max number of different atomic species (ntypx) = 10
     Max number of k-points (npk) =  40000
     Max angular momentum in pseudopotentials (lmaxx) =  3

     Atomic positions and unit cell read from directory:
     /home/hafidz/Documents/PKL/Kalkulasi-DFT/Project-Shift-Current-Multi-Weyl-Semimetal/Cr2HgSe4/Primitive-2/outdir/Cr2HgSe4-SC-Project-2.save/
     Atomic positions from file used, from input discarded

     file Cr.pbe-spn-rrkjus_psl.1.0.0.UPF: wavefunction(s)  3P renormalized
     file Hg.pbe-spn-rrkjus_psl.1.0.0.UPF: wavefunction(s)  5P renormalized

     Subspace diagonalization in iterative solution of the eigenvalue problem:
     one sub-group per band group will be used
     scalapack distributed-memory algorithm (size of sub-group:  2*  2 procs)

     Message from routine setup:
     using ibrav=0 with symmetry is DISCOURAGED, use correct ibrav instead

     Parallelization info
     --------------------
     sticks:   dense  smooth     PW     G-vecs:    dense   smooth      PW
     Min        1171     729    211                52939    26143    4011
     Max        1174     730    212                52940    26146    4013
     Sum        4687    2917    847               211759   104579   16049



     bravais-lattice index     =            0
     lattice parameter (alat)  =      14.5738  a.u.
     unit-cell volume          =    2188.7812 (a.u.)^3
     number of atoms/cell      =           14
     number of atomic types    =            3
     number of electrons       =       144.00
     number of Kohn-Sham states=          120
     kinetic-energy cutoff     =      50.0000  Ry
     charge density cutoff     =     320.0000  Ry
     Exchange-correlation= PBE
                           (   1   4   3   4   0   0   0)

     celldm(1)=  14.573788  celldm(2)=   0.000000  celldm(3)=   0.000000
     celldm(4)=   0.000000  celldm(5)=   0.000000  celldm(6)=   0.000000

     crystal axes: (cart. coord. in units of alat)
               a(1) = (   0.288675   0.816497   0.500000 )  
               a(2) = (   0.288675   0.816497  -0.500000 )  
               a(3) = (  -0.577350   0.816497   0.000000 )  

     reciprocal axes: (cart. coord. in units 2 pi/alat)
               b(1) = (  0.577350  0.408248  1.000000 )  
               b(2) = (  0.577350  0.408248 -1.000000 )  
               b(3) = ( -1.154701  0.408248  0.000000 )  


     PseudoPot. # 1 for Cr read from file:
     /home/hafidz/Documents/DFT/Pseudopotential/rrkjus/Cr.pbe-spn-rrkjus_psl.1.0.0.UPF
     MD5 check sum: ac5cc0a679be6eadbc07e1887cd97696
     Pseudo is Ultrasoft + core correction, Zval = 14.0
     Generated using "atomic" code by A. Dal Corso  v.5.1.2
     Using radial grid of 1183 points,  6 beta functions with: 
                l(1) =   0
                l(2) =   0
                l(3) =   1
                l(4) =   1
                l(5) =   2
                l(6) =   2
     Q(r) pseudized with 0 coefficients 


     PseudoPot. # 2 for Hg read from file:
     /home/hafidz/Documents/DFT/Pseudopotential/rrkjus/Hg.pbe-spn-rrkjus_psl.1.0.0.UPF
     MD5 check sum: 65689333edf7621de08780c51a426de3
     Pseudo is Ultrasoft + core correction, Zval = 20.0
     Generated using "atomic" code by A. Dal Corso  v.5.1.2
     Using radial grid of 1279 points,  6 beta functions with: 
                l(1) =   0
                l(2) =   0
                l(3) =   1
                l(4) =   1
                l(5) =   2
                l(6) =   2
     Q(r) pseudized with 0 coefficients 


     PseudoPot. # 3 for Se read from file:
     /home/hafidz/Documents/DFT/Pseudopotential/rrkjus/Se.pbe-n-rrkjus_psl.1.0.0.UPF
     MD5 check sum: 5f5e5c15c95449acb3b45b44a6529d2d
     Pseudo is Ultrasoft + core correction, Zval =  6.0
     Generated using "atomic" code by A. Dal Corso  v.5.1.2
     Using radial grid of 1211 points,  4 beta functions with: 
                l(1) =   0
                l(2) =   0
                l(3) =   1
                l(4) =   1
     Q(r) pseudized with 0 coefficients 


     atomic species   valence    mass     pseudopotential
        Cr            14.00    51.99610     Cr( 1.00)
        Hg            20.00   200.59200     Hg( 1.00)
        Se             6.00    78.97100     Se( 1.00)

     Starting magnetic structure 
     atomic species   magnetization
        Cr           0.100
        Hg           0.000
        Se           0.000

      4 Sym. Ops., with inversion, found ( 2 have fractional translation)



   Cartesian axes

     site n.     atom                  positions (alat units)
         1           Cr  tau(   1) = (   0.1443375   1.3268070   0.2500000  )
         2           Cr  tau(   2) = (  -0.2886752   1.3268070   0.0000000  )
         3           Cr  tau(   3) = (  -0.0000000   0.9185587   0.0000000  )
         4           Cr  tau(   4) = (   0.1443375   1.3268070  -0.2500000  )
         5           Hg  tau(   5) = (   0.0000012  -0.0000004   0.0000000  )
         6           Hg  tau(   6) = (  -0.0000013   1.8371178   0.0000000  )
         7           Se  tau(   7) = (   0.1243423   0.7002960   0.2153674  )
         8           Se  tau(   8) = (  -0.2486845   0.7002958   0.0000000  )
         9           Se  tau(   9) = (  -0.1243423   1.1368214  -0.2153674  )
        10           Se  tau(  10) = (   0.1243423   0.7002960  -0.2153674  )
        11           Se  tau(  11) = (  -0.0000002   0.3486022   0.0000000  )
        12           Se  tau(  12) = (  -0.1243423   1.1368214   0.2153674  )
        13           Se  tau(  13) = (   0.0000001   1.4885152   0.0000000  )
        14           Se  tau(  14) = (   0.2486844   1.1368216   0.0000000  )

     number of k points=   125  Marzari-Vanderbilt smearing, width (Ry)=  0.1000

     Number of k-points >= 100: set verbosity='high' to print them.

     Dense  grid:   211759 G-vectors     FFT dimensions: (  96,  96,  96)

     Smooth grid:   104579 G-vectors     FFT dimensions: (  72,  72,  72)

     Estimated max dynamical RAM per process >     210.36 MB

     Estimated total dynamical RAM >     841.44 MB

     Check: negative core charge=   -0.000002
     Generating pointlists ...
     new r_m :   0.1365 (alat units)  1.9892 (a.u.) for type    1
     new r_m :   0.1438 (alat units)  2.0957 (a.u.) for type    2
     new r_m :   0.1365 (alat units)  1.9892 (a.u.) for type    3

     The potential is recalculated from file :
     /home/hafidz/Documents/PKL/Kalkulasi-DFT/Project-Shift-Current-Multi-Weyl-Semimetal/Cr2HgSe4/Primitive-2/outdir/Cr2HgSe4-SC-Project-2.save/charge-density

     Starting wfcs are   92 randomized atomic wfcs +   28 random wfcs

     Band Structure Calculation
     Davidson diagonalization with overlap

     ethr =  1.94E-10,  avg # of iterations = 54.5

     total cpu time spent up to now is     7196.8 secs

     End of band structure calculation

     Number of k-points >= 100: set verbosity='high' to print the bands.

     the Fermi energy is     8.0051 ev
     (compare with:     8.0040 eV, computed in scf)

     Writing output data file /home/hafidz/Documents/PKL/Kalkulasi-DFT/Project-Shift-Current-Multi-Weyl-Semimetal/Cr2HgSe4/Primitive-2/outdir/Cr2HgSe4-SC-Project-2.save/

     init_run     :      4.11s CPU      4.28s WALL (       1 calls)
     electrons    :   7118.99s CPU   7192.06s WALL (       1 calls)

     Called by init_run:
     wfcinit      :      0.00s CPU      0.00s WALL (       1 calls)
     potinit      :      0.31s CPU      0.35s WALL (       1 calls)
     hinit0       :      3.32s CPU      3.33s WALL (       1 calls)

     Called by electrons:
     c_bands      :   7118.95s CPU   7192.02s WALL (       1 calls)
     v_of_rho     :      0.27s CPU      0.30s WALL (       1 calls)
     newd         :      0.32s CPU      0.43s WALL (       1 calls)

     Called by c_bands:
     init_us_2    :      0.59s CPU      0.78s WALL (     250 calls)
     cegterg      :   6954.82s CPU   7024.59s WALL (     837 calls)

     Called by *egterg:
     cdiaghg      :    486.05s CPU    489.16s WALL (   13887 calls)
     h_psi        :   2721.61s CPU   2786.49s WALL (   14724 calls)
     s_psi        :    451.17s CPU    451.38s WALL (   14724 calls)
     g_psi        :     17.56s CPU     17.59s WALL (   13637 calls)

     Called by h_psi:
     h_psi:calbec :    458.97s CPU    460.69s WALL (   14724 calls)
     vloc_psi     :   1793.96s CPU   1856.95s WALL (   14724 calls)
     add_vuspsi   :    458.06s CPU    458.24s WALL (   14724 calls)

     General routines
     calbec       :    458.90s CPU    460.64s WALL (   14724 calls)
     fft          :      0.14s CPU      0.15s WALL (      23 calls)
     ffts         :      0.00s CPU      0.00s WALL (       2 calls)
     fftw         :   1478.47s CPU   1529.89s WALL ( 1575634 calls)
     interpolate  :      0.02s CPU      0.02s WALL (       2 calls)
     davcio       :      0.51s CPU      6.37s WALL (     500 calls)

     Parallel routines
     fft_scatt_xy :    278.17s CPU    288.32s WALL ( 1575659 calls)
     fft_scatt_yz :    221.17s CPU    229.58s WALL ( 1575659 calls)

     PWSCF        :      1h58m CPU      2h 0m WALL


   This run was terminated on:   5:30:33  16Jul2024            

=------------------------------------------------------------------------------=
   JOB DONE.
=------------------------------------------------------------------------------=
