
     Program PWSCF v.6.7MaX starts on  7Jul2024 at 14:13:48 

     This program is part of the open-source Quantum ESPRESSO suite
     for quantum simulation of materials; please cite
         "P. Giannozzi et al., J. Phys.:Condens. Matter 21 395502 (2009);
         "P. Giannozzi et al., J. Phys.:Condens. Matter 29 465901 (2017);
          URL http://www.quantum-espresso.org", 
     in publications or presentations arising from this work. More details at
     http://www.quantum-espresso.org/quote

     Parallel version (MPI), running on     4 processors

     MPI processes distributed on     1 nodes
     R & G space division:  proc/nbgrp/npool/nimage =       4
     Waiting for input...
     Reading input from standard input

     Current dimensions of program PWSCF are:
     Max number of different atomic species (ntypx) = 10
     Max number of k-points (npk) =  40000
     Max angular momentum in pseudopotentials (lmaxx) =  3
     file Cr.pbe-spn-rrkjus_psl.1.0.0.UPF: wavefunction(s)  3P renormalized
     file Hg.pbe-spn-rrkjus_psl.1.0.0.UPF: wavefunction(s)  5P renormalized

     Subspace diagonalization in iterative solution of the eigenvalue problem:
     one sub-group per band group will be used
     scalapack distributed-memory algorithm (size of sub-group:  2*  2 procs)

     Message from routine setup:
     using ibrav=0 with symmetry is DISCOURAGED, use correct ibrav instead

     Parallelization info
     --------------------
     sticks:   dense  smooth     PW     G-vecs:    dense   smooth      PW
     Min        1171     729    205                52939    26143    3868
     Max        1174     730    206                52940    26146    3869
     Sum        4687    2917    823               211759   104579   15473



     bravais-lattice index     =            0
     lattice parameter (alat)  =      14.5738  a.u.
     unit-cell volume          =    2188.7812 (a.u.)^3
     number of atoms/cell      =           14
     number of atomic types    =            3
     number of electrons       =       144.00
     number of Kohn-Sham states=          120
     kinetic-energy cutoff     =      50.0000  Ry
     charge density cutoff     =     320.0000  Ry
     scf convergence threshold =      2.8E-07
     mixing beta               =       0.4000
     number of iterations used =            8  plain     mixing
     energy convergence thresh.=      1.4E-04
     force convergence thresh. =      1.0E-04
     Exchange-correlation= PBE
                           (   1   4   3   4   0   0   0)
     nstep                     =           50


     celldm(1)=  14.573788  celldm(2)=   0.000000  celldm(3)=   0.000000
     celldm(4)=   0.000000  celldm(5)=   0.000000  celldm(6)=   0.000000

     crystal axes: (cart. coord. in units of alat)
               a(1) = (   0.288675   0.816497   0.500000 )  
               a(2) = (   0.288675   0.816497  -0.500000 )  
               a(3) = (  -0.577350   0.816497   0.000000 )  

     reciprocal axes: (cart. coord. in units 2 pi/alat)
               b(1) = (  0.577350  0.408248  1.000000 )  
               b(2) = (  0.577350  0.408248 -1.000000 )  
               b(3) = ( -1.154701  0.408248  0.000000 )  


     PseudoPot. # 1 for Cr read from file:
     /home/hafidz/Documents/DFT/Pseudopotential/rrkjus/Cr.pbe-spn-rrkjus_psl.1.0.0.UPF
     MD5 check sum: ac5cc0a679be6eadbc07e1887cd97696
     Pseudo is Ultrasoft + core correction, Zval = 14.0
     Generated using "atomic" code by A. Dal Corso  v.5.1.2
     Using radial grid of 1183 points,  6 beta functions with: 
                l(1) =   0
                l(2) =   0
                l(3) =   1
                l(4) =   1
                l(5) =   2
                l(6) =   2
     Q(r) pseudized with 0 coefficients 


     PseudoPot. # 2 for Hg read from file:
     /home/hafidz/Documents/DFT/Pseudopotential/rrkjus/Hg.pbe-spn-rrkjus_psl.1.0.0.UPF
     MD5 check sum: 65689333edf7621de08780c51a426de3
     Pseudo is Ultrasoft + core correction, Zval = 20.0
     Generated using "atomic" code by A. Dal Corso  v.5.1.2
     Using radial grid of 1279 points,  6 beta functions with: 
                l(1) =   0
                l(2) =   0
                l(3) =   1
                l(4) =   1
                l(5) =   2
                l(6) =   2
     Q(r) pseudized with 0 coefficients 


     PseudoPot. # 3 for Se read from file:
     /home/hafidz/Documents/DFT/Pseudopotential/rrkjus/Se.pbe-n-rrkjus_psl.1.0.0.UPF
     MD5 check sum: 5f5e5c15c95449acb3b45b44a6529d2d
     Pseudo is Ultrasoft + core correction, Zval =  6.0
     Generated using "atomic" code by A. Dal Corso  v.5.1.2
     Using radial grid of 1211 points,  4 beta functions with: 
                l(1) =   0
                l(2) =   0
                l(3) =   1
                l(4) =   1
     Q(r) pseudized with 0 coefficients 


     atomic species   valence    mass     pseudopotential
        Cr            14.00    51.99610     Cr( 1.00)
        Hg            20.00   200.59200     Hg( 1.00)
        Se             6.00    78.97100     Se( 1.00)

     Starting magnetic structure 
     atomic species   magnetization
        Cr           0.100
        Hg           0.000
        Se           0.000

      4 Sym. Ops., with inversion, found ( 2 have fractional translation)



   Cartesian axes

     site n.     atom                  positions (alat units)
         1           Cr  tau(   1) = (   0.1443375   1.3268070   0.2500000  )
         2           Cr  tau(   2) = (  -0.2886752   1.3268070   0.0000000  )
         3           Cr  tau(   3) = (  -0.0000000   0.9185587   0.0000000  )
         4           Cr  tau(   4) = (   0.1443375   1.3268070  -0.2500000  )
         5           Hg  tau(   5) = (   0.0000000   0.0000000   0.0000000  )
         6           Hg  tau(   6) = (  -0.0000001   1.8371174   0.0000000  )
         7           Se  tau(   7) = (   0.1251083   0.7008374   0.2166940  )
         8           Se  tau(   8) = (  -0.2502167   0.7008374   0.0000000  )
         9           Se  tau(   9) = (  -0.1251084   1.1362800  -0.2166940  )
        10           Se  tau(  10) = (   0.1251083   0.7008374  -0.2166940  )
        11           Se  tau(  11) = (  -0.0000000   0.3469776   0.0000000  )
        12           Se  tau(  12) = (  -0.1251084   1.1362800   0.2166940  )
        13           Se  tau(  13) = (  -0.0000001   1.4901398   0.0000000  )
        14           Se  tau(  14) = (   0.2502166   1.1362800   0.0000000  )

     number of k points=    39  Marzari-Vanderbilt smearing, width (Ry)=  0.1000
                       cart. coord. in units 2pi/alat
        k(    1) = (   0.0000000   0.0000000   0.0000000), wk =   0.0080000
        k(    2) = (  -0.2309401   0.0816496   0.0000000), wk =   0.0160000
        k(    3) = (  -0.4618802   0.1632993   0.0000000), wk =   0.0160000
        k(    4) = (   0.1154701   0.0816497  -0.2000000), wk =   0.0320000
        k(    5) = (  -0.1154701   0.1632993  -0.2000000), wk =   0.0320000
        k(    6) = (  -0.3464102   0.2449489  -0.2000000), wk =   0.0320000
        k(    7) = (   0.5773503  -0.0816496  -0.2000000), wk =   0.0320000
        k(    8) = (   0.3464102   0.0000000  -0.2000000), wk =   0.0320000
        k(    9) = (   0.2309401   0.1632993  -0.4000000), wk =   0.0320000
        k(   10) = (   0.0000000   0.2449490  -0.4000000), wk =   0.0320000
        k(   11) = (  -0.2309401   0.3265986  -0.4000000), wk =   0.0320000
        k(   12) = (   0.6928203   0.0000000  -0.4000000), wk =   0.0320000
        k(   13) = (   0.4618802   0.0816497  -0.4000000), wk =   0.0320000
        k(   14) = (   0.2309401   0.1632993   0.0000000), wk =   0.0160000
        k(   15) = (   0.0000000   0.2449490   0.0000000), wk =   0.0160000
        k(   16) = (  -0.2309401   0.3265986   0.0000000), wk =   0.0160000
        k(   17) = (   0.6928203   0.0000000   0.0000000), wk =   0.0160000
        k(   18) = (   0.4618802   0.0816497   0.0000000), wk =   0.0160000
        k(   19) = (   0.3464102   0.2449490  -0.2000000), wk =   0.0320000
        k(   20) = (   0.1154701   0.3265986  -0.2000000), wk =   0.0320000
        k(   21) = (  -0.1154701   0.4082483  -0.2000000), wk =   0.0320000
        k(   22) = (   0.8082904   0.0816497  -0.2000000), wk =   0.0320000
        k(   23) = (   0.5773503   0.1632993  -0.2000000), wk =   0.0320000
        k(   24) = (  -0.1154701  -0.0816497   0.6000000), wk =   0.0320000
        k(   25) = (  -0.3464102  -0.0000000   0.6000000), wk =   0.0320000
        k(   26) = (  -0.5773503   0.0816496   0.6000000), wk =   0.0320000
        k(   27) = (   0.3464102  -0.2449489   0.6000000), wk =   0.0320000
        k(   28) = (   0.1154701  -0.1632993   0.6000000), wk =   0.0320000
        k(   29) = (   0.0000000   0.0000000   0.4000000), wk =   0.0160000
        k(   30) = (  -0.2309401   0.0816496   0.4000000), wk =   0.0320000
        k(   31) = (  -0.4618802   0.1632993   0.4000000), wk =   0.0320000
        k(   32) = (   0.4618802   0.3265986   0.0000000), wk =   0.0160000
        k(   33) = (   0.2309401   0.4082483   0.0000000), wk =   0.0160000
        k(   34) = (   0.0000000   0.4898979   0.0000000), wk =   0.0160000
        k(   35) = (   0.9237604   0.1632994   0.0000000), wk =   0.0160000
        k(   36) = (   0.6928203   0.2449490   0.0000000), wk =   0.0160000
        k(   37) = (   0.0000000   0.0000000   0.8000001), wk =   0.0160000
        k(   38) = (  -0.2309401   0.0816496   0.8000001), wk =   0.0320000
        k(   39) = (  -0.4618802   0.1632993   0.8000001), wk =   0.0320000

     Dense  grid:   211759 G-vectors     FFT dimensions: (  96,  96,  96)

     Smooth grid:   104579 G-vectors     FFT dimensions: (  72,  72,  72)

     Estimated max dynamical RAM per process >     719.17 MB

     Estimated total dynamical RAM >       2.81 GB

     Check: negative core charge=   -0.000002
     Generating pointlists ...
     new r_m :   0.1368 (alat units)  1.9940 (a.u.) for type    1
     new r_m :   0.1431 (alat units)  2.0859 (a.u.) for type    2
     new r_m :   0.1368 (alat units)  1.9940 (a.u.) for type    3

     Initial potential from superposition of free atoms

     starting charge  143.99614, renormalised to  144.00000
     Starting wfcs are   92 randomized atomic wfcs +   28 random wfcs

     total cpu time spent up to now is       79.6 secs

     Self-consistent Calculation

     iteration #  1     ecut=    50.00 Ry     beta= 0.40
     Davidson diagonalization with overlap
     ethr =  1.00E-02,  avg # of iterations =  6.2

     total cpu time spent up to now is      431.8 secs

     total energy              =   -1501.16441314 Ry
     estimated scf accuracy    <       1.90935931 Ry

     total magnetization       =     6.03 Bohr mag/cell
     absolute magnetization    =     7.26 Bohr mag/cell

     iteration #  2     ecut=    50.00 Ry     beta= 0.40
     Davidson diagonalization with overlap
     ethr =  1.33E-03,  avg # of iterations =  3.1

     total cpu time spent up to now is      696.6 secs

     total energy              =   -1501.05892652 Ry
     estimated scf accuracy    <      11.35125700 Ry

     total magnetization       =     4.98 Bohr mag/cell
     absolute magnetization    =     5.37 Bohr mag/cell

     iteration #  3     ecut=    50.00 Ry     beta= 0.40
     Davidson diagonalization with overlap
     ethr =  1.33E-03,  avg # of iterations =  2.0

     total cpu time spent up to now is      925.0 secs

     total energy              =   -1502.07020781 Ry
     estimated scf accuracy    <       0.04703761 Ry

     total magnetization       =     6.52 Bohr mag/cell
     absolute magnetization    =     7.83 Bohr mag/cell

     iteration #  4     ecut=    50.00 Ry     beta= 0.40
     Davidson diagonalization with overlap
     ethr =  3.27E-05,  avg # of iterations =  7.6

     total cpu time spent up to now is     6042.8 secs

     total energy              =   -1502.09375921 Ry
     estimated scf accuracy    <       0.02424452 Ry

     total magnetization       =     7.15 Bohr mag/cell
     absolute magnetization    =     8.64 Bohr mag/cell

     iteration #  5     ecut=    50.00 Ry     beta= 0.40
     Davidson diagonalization with overlap
     ethr =  1.68E-05,  avg # of iterations =  1.4

     total cpu time spent up to now is     6247.1 secs

     total energy              =   -1502.09972353 Ry
     estimated scf accuracy    <       0.04244316 Ry

     total magnetization       =     8.02 Bohr mag/cell
     absolute magnetization    =     9.73 Bohr mag/cell

     iteration #  6     ecut=    50.00 Ry     beta= 0.40
     Davidson diagonalization with overlap
     ethr =  1.68E-05,  avg # of iterations =  1.0

     total cpu time spent up to now is     6513.7 secs

     total energy              =   -1502.11536270 Ry
     estimated scf accuracy    <       0.02843834 Ry

     total magnetization       =     8.11 Bohr mag/cell
     absolute magnetization    =     9.87 Bohr mag/cell

     iteration #  7     ecut=    50.00 Ry     beta= 0.40
     Davidson diagonalization with overlap
     ethr =  1.68E-05,  avg # of iterations =  1.0

     total cpu time spent up to now is     6751.4 secs

     total energy              =   -1502.11609292 Ry
     estimated scf accuracy    <       0.01679428 Ry

     total magnetization       =     9.03 Bohr mag/cell
     absolute magnetization    =    11.14 Bohr mag/cell

     iteration #  8     ecut=    50.00 Ry     beta= 0.40
     Davidson diagonalization with overlap
     ethr =  1.17E-05,  avg # of iterations =  3.0

     total cpu time spent up to now is     7105.7 secs

     total energy              =   -1502.14482888 Ry
     estimated scf accuracy    <       0.05359532 Ry

     total magnetization       =    10.26 Bohr mag/cell
     absolute magnetization    =    13.14 Bohr mag/cell

     iteration #  9     ecut=    50.00 Ry     beta= 0.40
     Davidson diagonalization with overlap
     ethr =  1.17E-05,  avg # of iterations =  2.0

     total cpu time spent up to now is     7377.2 secs

     total energy              =   -1502.14764422 Ry
     estimated scf accuracy    <       0.03127049 Ry

     total magnetization       =    10.41 Bohr mag/cell
     absolute magnetization    =    13.48 Bohr mag/cell

     iteration # 10     ecut=    50.00 Ry     beta= 0.40
     Davidson diagonalization with overlap
     ethr =  1.17E-05,  avg # of iterations =  1.4

     total cpu time spent up to now is     7623.2 secs

     total energy              =   -1502.14898723 Ry
     estimated scf accuracy    <       0.00432173 Ry

     total magnetization       =    10.45 Bohr mag/cell
     absolute magnetization    =    13.56 Bohr mag/cell

     iteration # 11     ecut=    50.00 Ry     beta= 0.40
     Davidson diagonalization with overlap
     ethr =  3.00E-06,  avg # of iterations =  1.4

     total cpu time spent up to now is     7858.4 secs

     total energy              =   -1502.14831701 Ry
     estimated scf accuracy    <       0.00015582 Ry

     total magnetization       =    10.36 Bohr mag/cell
     absolute magnetization    =    13.45 Bohr mag/cell

     iteration # 12     ecut=    50.00 Ry     beta= 0.40
     Davidson diagonalization with overlap
     ethr =  1.08E-07,  avg # of iterations =  3.3

     total cpu time spent up to now is     8186.7 secs

     total energy              =   -1502.14941910 Ry
     estimated scf accuracy    <       0.00030144 Ry

     total magnetization       =    10.51 Bohr mag/cell
     absolute magnetization    =    13.89 Bohr mag/cell

     iteration # 13     ecut=    50.00 Ry     beta= 0.40
     Davidson diagonalization with overlap
     ethr =  1.08E-07,  avg # of iterations =  2.2

     total cpu time spent up to now is     8477.1 secs

     total energy              =   -1502.14963788 Ry
     estimated scf accuracy    <       0.00000636 Ry

     total magnetization       =    10.42 Bohr mag/cell
     absolute magnetization    =    13.69 Bohr mag/cell

     iteration # 14     ecut=    50.00 Ry     beta= 0.40
     Davidson diagonalization with overlap
     ethr =  4.41E-09,  avg # of iterations =  4.0

     total cpu time spent up to now is     8854.1 secs

     total energy              =   -1502.14964046 Ry
     estimated scf accuracy    <       0.00000196 Ry

     total magnetization       =    10.40 Bohr mag/cell
     absolute magnetization    =    13.68 Bohr mag/cell

     iteration # 15     ecut=    50.00 Ry     beta= 0.40
     Davidson diagonalization with overlap
     ethr =  1.36E-09,  avg # of iterations =  3.2

     total cpu time spent up to now is     9174.8 secs

     total energy              =   -1502.14964589 Ry
     estimated scf accuracy    <       0.00000104 Ry

     total magnetization       =    10.41 Bohr mag/cell
     absolute magnetization    =    13.71 Bohr mag/cell

     iteration # 16     ecut=    50.00 Ry     beta= 0.40
     Davidson diagonalization with overlap
     ethr =  7.22E-10,  avg # of iterations =  2.2

     total cpu time spent up to now is     9446.2 secs

     total energy              =   -1502.14964735 Ry
     estimated scf accuracy    <       0.00000102 Ry

     total magnetization       =    10.41 Bohr mag/cell
     absolute magnetization    =    13.70 Bohr mag/cell

     iteration # 17     ecut=    50.00 Ry     beta= 0.40
     Davidson diagonalization with overlap
     ethr =  7.06E-10,  avg # of iterations =  1.0

     Magnetic moment per site:
     atom:    1    charge:   12.1383    magn:    2.6970    constr:    0.0000
     atom:    2    charge:   12.1384    magn:    2.6971    constr:    0.0000
     atom:    3    charge:   12.1383    magn:    2.6970    constr:    0.0000
     atom:    4    charge:   12.1383    magn:    2.6970    constr:    0.0000
     atom:    5    charge:   17.5889    magn:   -0.0061    constr:    0.0000
     atom:    6    charge:   17.5889    magn:   -0.0061    constr:    0.0000
     atom:    7    charge:    3.8913    magn:   -0.1472    constr:    0.0000
     atom:    8    charge:    3.8913    magn:   -0.1472    constr:    0.0000
     atom:    9    charge:    3.8913    magn:   -0.1472    constr:    0.0000
     atom:   10    charge:    3.8913    magn:   -0.1472    constr:    0.0000
     atom:   11    charge:    3.8913    magn:   -0.1472    constr:    0.0000
     atom:   12    charge:    3.8913    magn:   -0.1472    constr:    0.0000
     atom:   13    charge:    3.8913    magn:   -0.1472    constr:    0.0000
     atom:   14    charge:    3.8913    magn:   -0.1472    constr:    0.0000

     total cpu time spent up to now is     9652.8 secs

     End of self-consistent calculation

 ------ SPIN UP ------------


          k = 0.0000 0.0000 0.0000 ( 13107 PWs)   bands (ev):

  -106.8205-106.8205 -64.8970 -64.8966 -64.8966 -64.8966 -55.1300 -55.1299
   -55.1299 -55.1298 -55.1298 -55.1297 -36.2979 -36.2908 -36.2908 -36.2908
   -36.2859 -36.2859 -36.2846 -36.2846 -36.2846 -36.2832 -36.2832 -36.2831
    -5.8987  -4.9750  -4.4944  -4.4944  -4.4944  -4.4459  -4.4459  -4.4459
     1.2533   1.2533   1.2533   1.3224   1.3224   1.3407   1.3407   1.3407
     1.3851   1.4485   1.4485   2.0509   2.7757   2.7757   2.7757   4.1520
     4.1520   4.5087   4.5087   5.1236   5.1236   5.1236   5.5968   5.5968
     5.5968   5.6676   5.6676   5.6676   6.0045   6.3446   6.3446   6.3446
     6.3957   6.3957   6.7605   6.7606   6.7606   6.8637   6.8637   6.8637
     6.9632   6.9632   6.9633   7.9022   7.9022   7.9022   8.5889   9.2974
     9.6158   9.6158   9.6159   9.9992   9.9992   9.9992  10.1005  10.1005
    11.5732  11.5732  11.5732  12.6145  12.6145  12.6145  12.6751  14.3870
    14.3870  14.3870  14.8868  14.8868  15.8587  15.8587  15.8587  16.0973
    16.0973  16.0973  16.1744  16.1744  18.2555  18.2656  18.9971  18.9971
    18.9971  19.9569  19.9569  19.9569  20.1266  20.3242  20.3242  20.6458

          k =-0.2309 0.0816 0.0000 ( 13128 PWs)   bands (ev):

  -106.8205-106.8205 -64.8970 -64.8967 -64.8966 -64.8966 -55.1314 -55.1313
   -55.1307 -55.1297 -55.1297 -55.1289 -36.2974 -36.2910 -36.2906 -36.2906
   -36.2858 -36.2858 -36.2851 -36.2847 -36.2847 -36.2834 -36.2834 -36.2831
    -5.8281  -5.0300  -4.5733  -4.5050  -4.5050  -4.4373  -4.4373  -4.4288
     1.1159   1.1809   1.2498   1.2498   1.3137   1.3137   1.3397   1.3397
     1.4435   1.4435   1.7354   2.2384   2.9308   2.9308   3.1317   4.1187
     4.1187   4.4793   4.4793   4.9408   5.0885   5.0934   5.0934   5.3549
     5.4188   5.4188   5.7265   5.7265   6.1122   6.1122   6.2248   6.4281
     6.5946   6.5946   6.6029   6.7944   6.7944   6.8636   6.9421   6.9422
     6.9618   6.9671   6.9671   7.4254   7.8921   7.8921   8.4433   9.5016
     9.5016   9.6977   9.6977   9.8663   9.8831  10.0229  10.0229  10.0929
    11.8197  11.8887  11.8887  12.7964  13.0459  13.1980  13.1980  14.1079
    14.3810  14.3810  15.2397  15.2397  15.4368  15.4368  15.5885  16.2081
    16.2081  16.2439  16.7111  16.7111  18.3041  18.6152  18.9950  18.9950
    19.0767  19.1620  19.1620  19.2482  19.5763  19.6203  19.6203  20.1020

          k =-0.4619 0.1633 0.0000 ( 13067 PWs)   bands (ev):

  -106.8205-106.8205 -64.8969 -64.8967 -64.8966 -64.8966 -55.1301 -55.1301
   -55.1295 -55.1291 -55.1291 -55.1287 -36.2962 -36.2915 -36.2903 -36.2903
   -36.2858 -36.2855 -36.2855 -36.2849 -36.2849 -36.2838 -36.2838 -36.2831
    -5.6628  -5.1941  -4.6294  -4.5179  -4.5179  -4.4473  -4.4276  -4.4276
     1.0061   1.0923   1.2520   1.2520   1.2741   1.2741   1.3640   1.3640
     1.4310   1.4310   2.1977   2.5015   3.2882   3.2882   3.8971   3.9674
     3.9674   4.4166   4.4166   4.4174   4.7466   5.0245   5.0245   5.0380
     5.1125   5.1125   5.3226   5.8125   5.8125   6.0521   6.0521   6.5636
     6.6207   6.6607   6.6607   6.8544   6.8544   6.8634   6.9390   6.9390
     7.0573   7.2057   7.2658   7.2658   7.7031   7.7031   8.3894   9.1940
     9.1940   9.3906   9.3906   9.6554   9.9821   9.9821  10.3693  10.4760
    12.6341  12.6341  12.6763  13.1391  13.6156  13.6187  13.6187  13.9611
    14.5923  14.5923  15.1612  15.1612  15.2719  16.4113  16.4113  16.6507
    16.6507  16.9323  17.1178  17.2878  17.2878  17.6197  17.6197  17.6257
    17.9592  18.1275  18.1275  18.3821  18.3821  19.2412  19.3269  19.3270

          k = 0.1155 0.0816-0.2000 ( 13128 PWs)   bands (ev):

  -106.8205-106.8205 -64.8970 -64.8966 -64.8966 -64.8966 -55.1314 -55.1313
   -55.1308 -55.1297 -55.1297 -55.1289 -36.2974 -36.2910 -36.2907 -36.2906
   -36.2858 -36.2858 -36.2851 -36.2847 -36.2847 -36.2834 -36.2834 -36.2832
    -5.8281  -5.0300  -4.5733  -4.5050  -4.5050  -4.4373  -4.4373  -4.4288
     1.1159   1.1809   1.2498   1.2498   1.3137   1.3137   1.3397   1.3397
     1.4435   1.4435   1.7354   2.2384   2.9308   2.9308   3.1317   4.1187
     4.1187   4.4793   4.4793   4.9408   5.0885   5.0934   5.0934   5.3549
     5.4188   5.4188   5.7265   5.7265   6.1122   6.1122   6.2248   6.4281
     6.5946   6.5946   6.6029   6.7943   6.7944   6.8636   6.9421   6.9421
     6.9618   6.9671   6.9671   7.4254   7.8921   7.8921   8.4433   9.5016
     9.5016   9.6977   9.6977   9.8663   9.8831  10.0229  10.0229  10.0929
    11.8197  11.8887  11.8887  12.7964  13.0459  13.1980  13.1980  14.1079
    14.3810  14.3810  15.2397  15.2397  15.4368  15.4368  15.5885  16.2081
    16.2081  16.2439  16.7111  16.7111  18.3041  18.6152  18.9950  18.9950
    19.0767  19.1620  19.1620  19.2483  19.5763  19.6203  19.6203  20.1019

          k =-0.1155 0.1633-0.2000 ( 13047 PWs)   bands (ev):

  -106.8205-106.8205 -64.8969 -64.8966 -64.8966 -64.8966 -55.1299 -55.1298
   -55.1291 -55.1288 -55.1283 -55.1283 -36.2971 -36.2912 -36.2905 -36.2904
   -36.2859 -36.2856 -36.2849 -36.2848 -36.2848 -36.2834 -36.2834 -36.2833
    -5.8038  -5.0428  -4.5431  -4.5431  -4.5293  -4.5009  -4.3994  -4.3994
     1.1226   1.1353   1.2601   1.2601   1.2848   1.2848   1.3321   1.3396
     1.4414   1.4417   1.8553   2.2903   3.0535   3.0535   3.0855   4.0723
     4.1879   4.4436   4.4870   4.8757   5.0271   5.0272   5.1537   5.3479
     5.3479   5.4400   5.6562   5.6562   5.8745   6.0774   6.2742   6.2742
     6.7237   6.7237   6.7282   6.7843   6.8113   6.8839   6.8839   6.8949
     6.9536   7.0545   7.0545   7.2033   7.8889   7.8889   8.3319   9.4539
     9.4835   9.4835   9.7258   9.7258   9.9722  10.0352  10.1743  10.2509
    11.9127  12.0654  12.0654  12.8677  13.2155  13.2155  13.4104  13.9186
    14.5906  14.5906  15.0331  15.2325  15.4307  15.6291  15.6291  16.2126
    16.3390  16.4338  16.4338  16.4433  18.1837  18.6359  18.6517  18.7152
    18.7152  19.0604  19.0913  19.0913  19.4387  19.4606  19.8992  20.1597

          k =-0.3464 0.2449-0.2000 ( 13041 PWs)   bands (ev):

  -106.8205-106.8205 -64.8969 -64.8967 -64.8966 -64.8966 -55.1298 -55.1294
   -55.1293 -55.1288 -55.1287 -55.1282 -36.2960 -36.2919 -36.2901 -36.2901
   -36.2858 -36.2856 -36.2853 -36.2850 -36.2847 -36.2838 -36.2837 -36.2833
    -5.6611  -5.1667  -4.6559  -4.5569  -4.5331  -4.4672  -4.4024  -4.3883
     1.0204   1.0710   1.2351   1.2532   1.2727   1.2801   1.3572   1.3633
     1.4298   1.4300   2.2461   2.5369   3.3226   3.3704   3.6731   4.0467
     4.1212   4.1809   4.4161   4.5104   4.7646   4.9622   5.0366   5.1203
     5.1656   5.2617   5.4191   5.6347   5.7463   5.8872   6.2521   6.2714
     6.3868   6.7474   6.7506   6.7908   6.8674   6.8838   6.9754   7.0312
     7.0755   7.0897   7.2026   7.2736   7.7688   7.8071   8.3276   9.0266
     9.1871   9.2779   9.5190   9.5389   9.7601   9.9767  10.7237  10.7675
    12.5626  12.7739  12.7928  13.2765  13.4826  13.8907  14.0490  14.2411
    14.3745  14.5653  14.7770  15.3457  15.4792  16.0683  16.1083  16.3969
    16.4777  16.6176  16.9129  17.0104  17.2072  17.2961  17.5245  17.8066
    17.9419  18.1628  18.3532  18.4926  18.6750  18.9265  19.3673  19.4743

          k = 0.5774-0.0816-0.2000 ( 13046 PWs)   bands (ev):

  -106.8205-106.8205 -64.8968 -64.8968 -64.8966 -64.8966 -55.1301 -55.1299
   -55.1290 -55.1289 -55.1286 -55.1282 -36.2954 -36.2922 -36.2901 -36.2899
   -36.2860 -36.2856 -36.2855 -36.2847 -36.2847 -36.2841 -36.2839 -36.2833
    -5.5692  -5.2551  -4.7152  -4.5388  -4.5162  -4.4504  -4.4078  -4.4048
     0.9825   1.0654   1.2196   1.2314   1.2731   1.3002   1.3734   1.3735
     1.4215   1.4227   2.4840   2.5894   3.4398   3.5829   3.7707   3.9849
     4.1491   4.2319   4.3893   4.3996   4.5922   4.7894   4.9610   4.9945
     5.1151   5.2142   5.2764   5.6047   5.7220   6.0218   6.0458   6.2736
     6.4026   6.6366   6.7593   6.7906   6.8573   6.8975   6.9942   7.0990
     7.1101   7.1966   7.3586   7.4034   7.5349   7.7344   8.4691   9.0148
     9.1040   9.1321   9.3297   9.5203   9.5734   9.9365  10.8133  10.9587
    12.8747  13.2863  13.3205  13.5482  13.7376  13.7974  13.9514  14.0517
    14.6195  14.8433  15.0589  15.1270  15.4000  16.0577  16.2759  16.2770
    16.4041  16.6682  16.8109  17.1415  17.1933  17.2318  17.3795  17.5923
    17.8028  17.8476  18.0052  18.1658  18.5631  18.6641  18.9866  19.0244

          k = 0.3464 0.0000-0.2000 ( 13111 PWs)   bands (ev):

  -106.8205-106.8205 -64.8969 -64.8967 -64.8966 -64.8966 -55.1311 -55.1305
   -55.1301 -55.1298 -55.1297 -55.1292 -36.2965 -36.2915 -36.2904 -36.2902
   -36.2858 -36.2856 -36.2855 -36.2849 -36.2846 -36.2838 -36.2836 -36.2833
    -5.7211  -5.1164  -4.6601  -4.5131  -4.4971  -4.4557  -4.4478  -4.3935
     1.0317   1.1141   1.2288   1.2452   1.2718   1.3242   1.3509   1.3534
     1.4344   1.4354   2.0609   2.4516   3.0971   3.3259   3.5183   4.0567
     4.1141   4.2201   4.4345   4.5976   4.8555   5.0426   5.0456   5.2691
     5.3281   5.3912   5.4100   5.5930   5.8044   6.2176   6.2208   6.3282
     6.4330   6.5441   6.7155   6.7290   6.8488   6.8996   6.9160   7.0583
     7.0634   7.0950   7.1302   7.2644   7.7611   7.8653   8.4202   9.3080
     9.3372   9.3438   9.5231   9.6356   9.7176   9.9332  10.4495  10.6351
    12.3031  12.3919  12.4582  13.2452  13.4994  13.6391  13.8533  13.9371
    14.5273  14.6326  14.6953  15.1083  15.2450  15.5942  16.1469  16.3774
    16.4565  16.7623  16.8267  17.1603  17.5814  17.6707  18.0313  18.1091
    18.2130  18.4904  18.7518  18.8973  19.1458  19.3895  19.5725  19.7537

          k = 0.2309 0.1633-0.4000 ( 13067 PWs)   bands (ev):

  -106.8205-106.8205 -64.8969 -64.8966 -64.8966 -64.8966 -55.1301 -55.1301
   -55.1296 -55.1291 -55.1290 -55.1287 -36.2962 -36.2914 -36.2903 -36.2903
   -36.2858 -36.2855 -36.2855 -36.2848 -36.2848 -36.2838 -36.2838 -36.2832
    -5.6628  -5.1941  -4.6294  -4.5179  -4.5179  -4.4473  -4.4276  -4.4276
     1.0061   1.0923   1.2520   1.2520   1.2741   1.2741   1.3640   1.3640
     1.4310   1.4310   2.1977   2.5015   3.2882   3.2882   3.8971   3.9674
     3.9674   4.4166   4.4166   4.4174   4.7466   5.0245   5.0245   5.0379
     5.1125   5.1125   5.3226   5.8125   5.8125   6.0520   6.0521   6.5636
     6.6208   6.6607   6.6607   6.8544   6.8544   6.8634   6.9390   6.9390
     7.0573   7.2056   7.2658   7.2658   7.7031   7.7031   8.3894   9.1940
     9.1940   9.3907   9.3907   9.6554   9.9821   9.9821  10.3693  10.4760
    12.6341  12.6341  12.6763  13.1391  13.6157  13.6187  13.6187  13.9611
    14.5923  14.5923  15.1612  15.1612  15.2719  16.4113  16.4113  16.6507
    16.6507  16.9323  17.1178  17.2878  17.2878  17.6197  17.6197  17.6257
    17.9592  18.1275  18.1275  18.3821  18.3821  19.2417  19.3270  19.4424

          k = 0.0000 0.2449-0.4000 ( 13041 PWs)   bands (ev):

  -106.8205-106.8205 -64.8969 -64.8967 -64.8966 -64.8966 -55.1297 -55.1294
   -55.1293 -55.1287 -55.1287 -55.1282 -36.2960 -36.2919 -36.2901 -36.2901
   -36.2858 -36.2856 -36.2853 -36.2850 -36.2847 -36.2838 -36.2837 -36.2833
    -5.6611  -5.1667  -4.6559  -4.5569  -4.5332  -4.4672  -4.4024  -4.3883
     1.0204   1.0710   1.2351   1.2532   1.2727   1.2801   1.3572   1.3633
     1.4298   1.4300   2.2461   2.5369   3.3226   3.3704   3.6731   4.0467
     4.1212   4.1809   4.4161   4.5104   4.7646   4.9622   5.0366   5.1203
     5.1656   5.2617   5.4191   5.6347   5.7463   5.8872   6.2521   6.2714
     6.3868   6.7474   6.7506   6.7909   6.8674   6.8838   6.9753   7.0312
     7.0755   7.0897   7.2026   7.2737   7.7688   7.8071   8.3276   9.0266
     9.1871   9.2779   9.5190   9.5389   9.7601   9.9767  10.7237  10.7675
    12.5626  12.7739  12.7928  13.2765  13.4825  13.8907  14.0490  14.2411
    14.3745  14.5653  14.7770  15.3457  15.4792  16.0683  16.1083  16.3969
    16.4777  16.6176  16.9129  17.0104  17.2072  17.2961  17.5245  17.8066
    17.9419  18.1628  18.3532  18.4926  18.6750  18.9265  19.3672  19.4743

          k =-0.2309 0.3266-0.4000 ( 13019 PWs)   bands (ev):

  -106.8205-106.8205 -64.8968 -64.8967 -64.8966 -64.8966 -55.1294 -55.1294
   -55.1289 -55.1282 -55.1282 -55.1281 -36.2951 -36.2928 -36.2898 -36.2897
   -36.2859 -36.2856 -36.2853 -36.2852 -36.2849 -36.2841 -36.2836 -36.2835
    -5.5540  -5.2542  -4.5861  -4.5847  -4.5847  -4.5828  -4.3614  -4.3614
     1.0214   1.0222   1.2063   1.2063   1.2915   1.2916   1.3704   1.3797
     1.4162   1.4187   2.5298   2.6838   3.6125   3.6125   3.6413   3.9705
     4.2457   4.2886   4.4102   4.4840   4.8017   4.8017   4.8076   4.8658
     4.8658   5.2542   5.2919   5.4774   5.7087   5.7087   6.1108   6.1108
     6.6870   6.7277   6.7408   6.7408   6.8674   6.8674   6.9640   6.9738
     7.1833   7.2984   7.3814   7.3814   7.7272   7.7272   8.1471   8.6094
     8.9363   8.9363   9.6090   9.6090   9.9273   9.9400  11.0061  11.1698
    12.8542  13.1442  13.4422  13.4422  13.9624  13.9679  13.9679  14.1489
    15.0569  15.0569  15.1233  15.7940  16.0252  16.0252  16.0435  16.2098
    16.2185  16.3745  16.3745  16.8122  16.8122  17.0253  17.0703  17.2504
    17.3554  17.8674  17.9797  18.1353  18.3427  18.3427  19.0328  19.0329

          k = 0.6928 0.0000-0.4000 ( 13050 PWs)   bands (ev):

  -106.8205-106.8205 -64.8968 -64.8968 -64.8966 -64.8966 -55.1305 -55.1295
   -55.1292 -55.1287 -55.1287 -55.1284 -36.2943 -36.2935 -36.2897 -36.2897
   -36.2860 -36.2857 -36.2855 -36.2850 -36.2845 -36.2843 -36.2839 -36.2835
    -5.4361  -5.3615  -4.7188  -4.5771  -4.5742  -4.4647  -4.3827  -4.3699
     0.9851   1.0242   1.2007   1.2329   1.2675   1.2997   1.3921   1.3937
     1.4018   1.4066   2.7123   2.7344   3.5697   3.6894   3.8974   3.9402
     4.1579   4.3317   4.3558   4.4604   4.4808   4.6808   4.8033   4.8774
     4.9959   5.2018   5.2385   5.4603   5.6672   5.8831   6.0796   6.0991
     6.2400   6.6611   6.7977   6.8335   6.8621   6.9531   6.9889   7.0453
     7.2006   7.2263   7.4825   7.5258   7.5492   7.6582   8.4673   8.5460
     8.9135   8.9578   9.3157   9.4788   9.7273   9.9345  11.1553  11.3286
    13.0948  13.4736  13.6502  13.9244  14.0618  14.2626  14.2776  14.4043
    14.8178  15.0424  15.2238  15.3705  15.4617  15.7292  15.7875  15.8002
    15.8635  16.3002  16.6589  16.9055  17.0139  17.1260  17.3198  17.4272
    17.5036  17.6515  17.7681  18.2334  18.3271  18.3793  18.6160  18.7760

          k = 0.4619 0.0816-0.4000 ( 13046 PWs)   bands (ev):

  -106.8205-106.8205 -64.8969 -64.8967 -64.8966 -64.8966 -55.1300 -55.1299
   -55.1290 -55.1289 -55.1286 -55.1282 -36.2955 -36.2922 -36.2901 -36.2899
   -36.2860 -36.2856 -36.2855 -36.2847 -36.2847 -36.2842 -36.2839 -36.2833
    -5.5692  -5.2551  -4.7152  -4.5388  -4.5162  -4.4504  -4.4078  -4.4048
     0.9825   1.0654   1.2196   1.2314   1.2731   1.3001   1.3734   1.3735
     1.4215   1.4227   2.4840   2.5894   3.4398   3.5829   3.7707   3.9849
     4.1491   4.2319   4.3892   4.3996   4.5922   4.7894   4.9610   4.9945
     5.1151   5.2142   5.2763   5.6047   5.7220   6.0218   6.0458   6.2736
     6.4026   6.6366   6.7593   6.7906   6.8573   6.8975   6.9942   7.0990
     7.1101   7.1965   7.3586   7.4034   7.5349   7.7344   8.4691   9.0148
     9.1039   9.1321   9.3297   9.5203   9.5733   9.9365  10.8133  10.9587
    12.8747  13.2863  13.3205  13.5482  13.7376  13.7974  13.9514  14.0517
    14.6195  14.8433  15.0589  15.1270  15.4000  16.0577  16.2759  16.2770
    16.4041  16.6682  16.8109  17.1415  17.1933  17.2318  17.3795  17.5923
    17.8028  17.8476  18.0052  18.1658  18.5631  18.6641  18.9866  19.0244

          k = 0.2309 0.1633 0.0000 ( 13047 PWs)   bands (ev):

  -106.8205-106.8205 -64.8969 -64.8966 -64.8966 -64.8966 -55.1299 -55.1298
   -55.1291 -55.1289 -55.1283 -55.1283 -36.2971 -36.2912 -36.2905 -36.2904
   -36.2859 -36.2856 -36.2849 -36.2848 -36.2848 -36.2834 -36.2834 -36.2833
    -5.8038  -5.0428  -4.5431  -4.5431  -4.5293  -4.5009  -4.3994  -4.3994
     1.1226   1.1353   1.2601   1.2601   1.2848   1.2848   1.3321   1.3396
     1.4414   1.4417   1.8553   2.2903   3.0535   3.0535   3.0855   4.0723
     4.1879   4.4436   4.4870   4.8757   5.0271   5.0272   5.1537   5.3479
     5.3479   5.4400   5.6562   5.6562   5.8745   6.0774   6.2742   6.2742
     6.7237   6.7237   6.7282   6.7843   6.8113   6.8839   6.8839   6.8949
     6.9536   7.0545   7.0545   7.2033   7.8889   7.8889   8.3319   9.4539
     9.4835   9.4835   9.7258   9.7258   9.9722  10.0352  10.1743  10.2509
    11.9127  12.0654  12.0654  12.8677  13.2155  13.2155  13.4104  13.9186
    14.5906  14.5906  15.0331  15.2325  15.4307  15.6291  15.6291  16.2126
    16.3390  16.4338  16.4338  16.4433  18.1837  18.6359  18.6517  18.7152
    18.7152  19.0604  19.0913  19.0913  19.4387  19.4606  19.8992  20.1596

          k = 0.0000 0.2449 0.0000 ( 13128 PWs)   bands (ev):

  -106.8205-106.8205 -64.8970 -64.8966 -64.8966 -64.8966 -55.1313 -55.1313
   -55.1308 -55.1297 -55.1297 -55.1289 -36.2974 -36.2910 -36.2907 -36.2906
   -36.2858 -36.2858 -36.2851 -36.2847 -36.2847 -36.2834 -36.2834 -36.2832
    -5.8281  -5.0300  -4.5733  -4.5050  -4.5050  -4.4373  -4.4373  -4.4288
     1.1159   1.1809   1.2498   1.2498   1.3137   1.3137   1.3397   1.3397
     1.4435   1.4435   1.7354   2.2384   2.9308   2.9308   3.1317   4.1187
     4.1187   4.4793   4.4793   4.9408   5.0885   5.0934   5.0934   5.3549
     5.4188   5.4188   5.7265   5.7265   6.1122   6.1122   6.2248   6.4281
     6.5946   6.5946   6.6029   6.7943   6.7944   6.8636   6.9421   6.9421
     6.9618   6.9671   6.9671   7.4254   7.8921   7.8921   8.4433   9.5016
     9.5016   9.6977   9.6977   9.8663   9.8831  10.0229  10.0229  10.0929
    11.8197  11.8887  11.8887  12.7964  13.0459  13.1980  13.1980  14.1079
    14.3810  14.3810  15.2397  15.2397  15.4368  15.4368  15.5885  16.2081
    16.2081  16.2439  16.7111  16.7111  18.3041  18.6152  18.9950  18.9950
    19.0767  19.1620  19.1620  19.2483  19.5763  19.6203  19.6203  20.1022

          k =-0.2309 0.3266 0.0000 ( 13111 PWs)   bands (ev):

  -106.8205-106.8205 -64.8969 -64.8967 -64.8966 -64.8966 -55.1311 -55.1306
   -55.1301 -55.1298 -55.1297 -55.1291 -36.2965 -36.2915 -36.2904 -36.2902
   -36.2858 -36.2856 -36.2855 -36.2849 -36.2846 -36.2838 -36.2836 -36.2833
    -5.7211  -5.1164  -4.6601  -4.5131  -4.4971  -4.4557  -4.4478  -4.3935
     1.0317   1.1141   1.2288   1.2452   1.2718   1.3242   1.3509   1.3534
     1.4344   1.4354   2.0609   2.4516   3.0971   3.3259   3.5183   4.0567
     4.1141   4.2201   4.4345   4.5976   4.8555   5.0426   5.0456   5.2691
     5.3281   5.3912   5.4100   5.5930   5.8044   6.2176   6.2208   6.3282
     6.4330   6.5441   6.7155   6.7290   6.8488   6.8996   6.9160   7.0583
     7.0634   7.0950   7.1302   7.2644   7.7611   7.8653   8.4202   9.3080
     9.3372   9.3438   9.5231   9.6356   9.7176   9.9332  10.4495  10.6351
    12.3031  12.3919  12.4582  13.2452  13.4994  13.6391  13.8533  13.9371
    14.5273  14.6326  14.6953  15.1083  15.2450  15.5942  16.1469  16.3774
    16.4565  16.7623  16.8267  17.1603  17.5814  17.6707  18.0313  18.1091
    18.2130  18.4904  18.7518  18.8973  19.1458  19.3895  19.5724  19.7534

          k = 0.6928 0.0000 0.0000 ( 13046 PWs)   bands (ev):

  -106.8205-106.8205 -64.8968 -64.8968 -64.8966 -64.8966 -55.1301 -55.1299
   -55.1290 -55.1289 -55.1286 -55.1282 -36.2954 -36.2922 -36.2901 -36.2899
   -36.2860 -36.2856 -36.2855 -36.2847 -36.2847 -36.2841 -36.2839 -36.2833
    -5.5692  -5.2551  -4.7152  -4.5388  -4.5162  -4.4504  -4.4078  -4.4048
     0.9825   1.0654   1.2196   1.2314   1.2731   1.3001   1.3734   1.3735
     1.4215   1.4227   2.4840   2.5894   3.4398   3.5829   3.7707   3.9849
     4.1491   4.2319   4.3893   4.3996   4.5922   4.7894   4.9610   4.9945
     5.1151   5.2142   5.2764   5.6047   5.7220   6.0218   6.0458   6.2736
     6.4026   6.6366   6.7593   6.7906   6.8573   6.8975   6.9942   7.0990
     7.1101   7.1966   7.3586   7.4034   7.5349   7.7344   8.4691   9.0148
     9.1040   9.1321   9.3297   9.5203   9.5734   9.9365  10.8133  10.9587
    12.8747  13.2863  13.3205  13.5482  13.7376  13.7974  13.9514  14.0517
    14.6195  14.8433  15.0588  15.1270  15.4000  16.0577  16.2759  16.2770
    16.4041  16.6682  16.8109  17.1415  17.1933  17.2318  17.3795  17.5923
    17.8028  17.8476  18.0052  18.1658  18.5631  18.6641  18.9866  19.0244

          k = 0.4619 0.0816 0.0000 ( 13041 PWs)   bands (ev):

  -106.8205-106.8205 -64.8969 -64.8967 -64.8966 -64.8966 -55.1298 -55.1294
   -55.1293 -55.1288 -55.1287 -55.1282 -36.2960 -36.2919 -36.2901 -36.2901
   -36.2858 -36.2856 -36.2853 -36.2850 -36.2847 -36.2838 -36.2837 -36.2833
    -5.6611  -5.1667  -4.6559  -4.5569  -4.5331  -4.4672  -4.4024  -4.3883
     1.0204   1.0710   1.2351   1.2532   1.2727   1.2801   1.3572   1.3633
     1.4298   1.4300   2.2461   2.5369   3.3226   3.3704   3.6731   4.0467
     4.1212   4.1809   4.4161   4.5104   4.7646   4.9622   5.0366   5.1203
     5.1656   5.2617   5.4191   5.6347   5.7463   5.8872   6.2521   6.2714
     6.3868   6.7474   6.7506   6.7908   6.8674   6.8838   6.9754   7.0312
     7.0755   7.0897   7.2026   7.2737   7.7688   7.8071   8.3276   9.0266
     9.1871   9.2779   9.5190   9.5389   9.7601   9.9767  10.7237  10.7675
    12.5626  12.7739  12.7928  13.2765  13.4826  13.8907  14.0490  14.2411
    14.3745  14.5653  14.7770  15.3457  15.4792  16.0683  16.1083  16.3969
    16.4777  16.6176  16.9129  17.0104  17.2072  17.2961  17.5245  17.8066
    17.9419  18.1628  18.3532  18.4926  18.6750  18.9265  19.3672  19.4743

          k = 0.3464 0.2449-0.2000 ( 13041 PWs)   bands (ev):

  -106.8205-106.8205 -64.8969 -64.8967 -64.8966 -64.8966 -55.1298 -55.1294
   -55.1293 -55.1288 -55.1287 -55.1282 -36.2960 -36.2919 -36.2902 -36.2901
   -36.2858 -36.2857 -36.2853 -36.2850 -36.2847 -36.2838 -36.2837 -36.2834
    -5.6611  -5.1667  -4.6559  -4.5569  -4.5332  -4.4672  -4.4024  -4.3883
     1.0204   1.0710   1.2351   1.2532   1.2727   1.2801   1.3572   1.3633
     1.4298   1.4300   2.2461   2.5369   3.3226   3.3704   3.6731   4.0467
     4.1212   4.1809   4.4161   4.5104   4.7646   4.9622   5.0366   5.1203
     5.1656   5.2617   5.4191   5.6347   5.7463   5.8872   6.2521   6.2714
     6.3868   6.7474   6.7506   6.7908   6.8674   6.8838   6.9753   7.0312
     7.0755   7.0897   7.2026   7.2736   7.7688   7.8071   8.3276   9.0266
     9.1871   9.2778   9.5190   9.5389   9.7601   9.9767  10.7237  10.7675
    12.5626  12.7739  12.7928  13.2765  13.4825  13.8907  14.0490  14.2411
    14.3745  14.5653  14.7770  15.3457  15.4792  16.0683  16.1083  16.3969
    16.4777  16.6176  16.9129  17.0104  17.2072  17.2961  17.5245  17.8066
    17.9419  18.1628  18.3532  18.4926  18.6750  18.9265  19.3672  19.4743

          k = 0.1155 0.3266-0.2000 ( 13111 PWs)   bands (ev):

  -106.8205-106.8205 -64.8969 -64.8967 -64.8966 -64.8966 -55.1311 -55.1305
   -55.1301 -55.1298 -55.1297 -55.1292 -36.2965 -36.2915 -36.2904 -36.2902
   -36.2858 -36.2856 -36.2855 -36.2849 -36.2846 -36.2838 -36.2836 -36.2833
    -5.7211  -5.1164  -4.6601  -4.5131  -4.4971  -4.4557  -4.4478  -4.3935
     1.0317   1.1141   1.2288   1.2452   1.2718   1.3242   1.3509   1.3534
     1.4344   1.4354   2.0609   2.4516   3.0971   3.3259   3.5183   4.0567
     4.1141   4.2201   4.4345   4.5976   4.8555   5.0426   5.0456   5.2691
     5.3281   5.3912   5.4100   5.5930   5.8044   6.2176   6.2208   6.3282
     6.4330   6.5441   6.7155   6.7289   6.8488   6.8996   6.9160   7.0583
     7.0635   7.0949   7.1302   7.2644   7.7611   7.8653   8.4202   9.3080
     9.3372   9.3438   9.5231   9.6356   9.7176   9.9332  10.4495  10.6351
    12.3031  12.3919  12.4582  13.2452  13.4994  13.6391  13.8533  13.9371
    14.5273  14.6326  14.6953  15.1083  15.2450  15.5942  16.1469  16.3774
    16.4565  16.7623  16.8267  17.1603  17.5814  17.6707  18.0313  18.1091
    18.2130  18.4904  18.7518  18.8973  19.1458  19.3896  19.5725  19.7540

          k =-0.1155 0.4082-0.2000 ( 13041 PWs)   bands (ev):

  -106.8205-106.8205 -64.8969 -64.8967 -64.8966 -64.8966 -55.1298 -55.1294
   -55.1293 -55.1288 -55.1287 -55.1282 -36.2960 -36.2919 -36.2901 -36.2901
   -36.2858 -36.2856 -36.2853 -36.2850 -36.2847 -36.2838 -36.2837 -36.2834
    -5.6611  -5.1667  -4.6559  -4.5569  -4.5332  -4.4672  -4.4024  -4.3883
     1.0204   1.0710   1.2352   1.2532   1.2727   1.2801   1.3572   1.3633
     1.4298   1.4300   2.2461   2.5369   3.3226   3.3704   3.6731   4.0467
     4.1212   4.1809   4.4161   4.5104   4.7646   4.9622   5.0366   5.1203
     5.1656   5.2617   5.4191   5.6347   5.7463   5.8872   6.2521   6.2714
     6.3868   6.7474   6.7506   6.7908   6.8674   6.8838   6.9753   7.0312
     7.0755   7.0897   7.2026   7.2736   7.7688   7.8071   8.3276   9.0266
     9.1871   9.2778   9.5190   9.5389   9.7601   9.9767  10.7237  10.7675
    12.5626  12.7739  12.7928  13.2765  13.4826  13.8907  14.0490  14.2411
    14.3745  14.5653  14.7770  15.3457  15.4792  16.0683  16.1083  16.3969
    16.4777  16.6176  16.9129  17.0104  17.2072  17.2961  17.5245  17.8066
    17.9419  18.1628  18.3532  18.4926  18.6750  18.9265  19.3672  19.4744

          k = 0.8083 0.0816-0.2000 ( 13044 PWs)   bands (ev):

  -106.8205-106.8205 -64.8968 -64.8968 -64.8966 -64.8966 -55.1303 -55.1300
   -55.1291 -55.1288 -55.1281 -55.1281 -36.2949 -36.2929 -36.2898 -36.2898
   -36.2860 -36.2858 -36.2853 -36.2849 -36.2846 -36.2842 -36.2838 -36.2836
    -5.5137  -5.2867  -4.7185  -4.6396  -4.4685  -4.4428  -4.4196  -4.3850
     0.9878   1.0289   1.2233   1.2515   1.2632   1.2788   1.3797   1.3844
     1.4131   1.4164   2.5890   2.7069   3.5846   3.6453   3.8270   3.8907
     4.1588   4.2644   4.3525   4.4020   4.4800   4.6756   4.9915   5.0186
     5.0906   5.2417   5.3136   5.3787   5.7611   5.9261   6.0649   6.2604
     6.2970   6.3447   6.7881   6.8750   6.9019   6.9313   7.0355   7.0648
     7.0867   7.1752   7.4170   7.4526   7.6011   7.7237   8.5046   8.8736
     9.0217   9.0248   9.2295   9.3410   9.7143   9.8283  11.1566  11.1961
    13.1235  13.3053  13.5000  13.7156  14.0585  14.1298  14.2435  14.4953
    14.6222  14.8166  15.0032  15.2540  15.3000  15.8514  15.9104  15.9595
    16.0576  16.2433  16.4449  17.0348  17.1350  17.2829  17.4443  17.4538
    17.8001  17.8221  18.0353  18.1695  18.3959  18.5018  19.0389  19.1177

          k = 0.5774 0.1633-0.2000 ( 13044 PWs)   bands (ev):

  -106.8205-106.8205 -64.8968 -64.8967 -64.8966 -64.8966 -55.1303 -55.1300
   -55.1291 -55.1288 -55.1281 -55.1281 -36.2949 -36.2929 -36.2899 -36.2897
   -36.2860 -36.2858 -36.2853 -36.2849 -36.2846 -36.2842 -36.2838 -36.2836
    -5.5137  -5.2867  -4.7185  -4.6396  -4.4685  -4.4428  -4.4196  -4.3850
     0.9878   1.0289   1.2233   1.2515   1.2632   1.2788   1.3797   1.3844
     1.4131   1.4164   2.5890   2.7069   3.5846   3.6453   3.8270   3.8907
     4.1588   4.2644   4.3525   4.4020   4.4800   4.6756   4.9915   5.0186
     5.0906   5.2417   5.3136   5.3787   5.7611   5.9261   6.0649   6.2604
     6.2970   6.3447   6.7881   6.8750   6.9019   6.9313   7.0355   7.0648
     7.0867   7.1752   7.4170   7.4526   7.6011   7.7237   8.5046   8.8736
     9.0217   9.0248   9.2295   9.3410   9.7143   9.8283  11.1566  11.1961
    13.1235  13.3053  13.5000  13.7156  14.0585  14.1298  14.2435  14.4953
    14.6222  14.8166  15.0032  15.2540  15.3000  15.8514  15.9104  15.9595
    16.0576  16.2433  16.4449  17.0348  17.1350  17.2829  17.4443  17.4538
    17.8001  17.8221  18.0353  18.1695  18.3960  18.5018  19.0396  19.1205

          k =-0.1155-0.0816 0.6000 ( 13046 PWs)   bands (ev):

  -106.8205-106.8205 -64.8969 -64.8967 -64.8966 -64.8966 -55.1301 -55.1298
   -55.1290 -55.1289 -55.1286 -55.1282 -36.2955 -36.2922 -36.2901 -36.2899
   -36.2860 -36.2856 -36.2855 -36.2847 -36.2847 -36.2842 -36.2840 -36.2833
    -5.5692  -5.2551  -4.7152  -4.5388  -4.5162  -4.4504  -4.4078  -4.4048
     0.9825   1.0654   1.2196   1.2314   1.2731   1.3002   1.3734   1.3735
     1.4215   1.4227   2.4840   2.5894   3.4398   3.5829   3.7707   3.9849
     4.1491   4.2319   4.3892   4.3996   4.5922   4.7894   4.9610   4.9945
     5.1151   5.2142   5.2764   5.6047   5.7220   6.0218   6.0458   6.2736
     6.4026   6.6366   6.7593   6.7906   6.8573   6.8975   6.9942   7.0990
     7.1101   7.1966   7.3586   7.4034   7.5349   7.7344   8.4691   9.0148
     9.1039   9.1321   9.3297   9.5203   9.5734   9.9365  10.8133  10.9587
    12.8747  13.2863  13.3205  13.5482  13.7376  13.7974  13.9514  14.0517
    14.6195  14.8433  15.0589  15.1270  15.4000  16.0577  16.2759  16.2771
    16.4041  16.6682  16.8109  17.1415  17.1933  17.2318  17.3795  17.5923
    17.8028  17.8476  18.0052  18.1658  18.5631  18.6641  18.9867  19.0244

          k =-0.3464-0.0000 0.6000 ( 13046 PWs)   bands (ev):

  -106.8205-106.8205 -64.8969 -64.8967 -64.8966 -64.8966 -55.1301 -55.1298
   -55.1290 -55.1289 -55.1286 -55.1282 -36.2955 -36.2922 -36.2901 -36.2899
   -36.2860 -36.2856 -36.2855 -36.2847 -36.2847 -36.2842 -36.2840 -36.2833
    -5.5692  -5.2551  -4.7152  -4.5388  -4.5162  -4.4504  -4.4078  -4.4048
     0.9825   1.0654   1.2196   1.2314   1.2731   1.3002   1.3734   1.3735
     1.4215   1.4227   2.4840   2.5894   3.4398   3.5829   3.7707   3.9849
     4.1491   4.2319   4.3892   4.3996   4.5922   4.7894   4.9610   4.9945
     5.1151   5.2142   5.2764   5.6047   5.7220   6.0218   6.0458   6.2736
     6.4026   6.6366   6.7593   6.7906   6.8573   6.8975   6.9942   7.0990
     7.1101   7.1966   7.3586   7.4034   7.5349   7.7344   8.4691   9.0148
     9.1039   9.1321   9.3297   9.5203   9.5734   9.9365  10.8133  10.9587
    12.8747  13.2863  13.3205  13.5482  13.7376  13.7974  13.9514  14.0517
    14.6195  14.8433  15.0589  15.1270  15.4000  16.0577  16.2759  16.2770
    16.4041  16.6682  16.8109  17.1415  17.1933  17.2318  17.3795  17.5923
    17.8028  17.8476  18.0052  18.1658  18.5631  18.6641  18.9866  19.0244

          k =-0.5774 0.0816 0.6000 ( 13044 PWs)   bands (ev):

  -106.8205-106.8205 -64.8968 -64.8967 -64.8966 -64.8966 -55.1303 -55.1300
   -55.1291 -55.1288 -55.1281 -55.1281 -36.2949 -36.2928 -36.2899 -36.2897
   -36.2860 -36.2858 -36.2853 -36.2849 -36.2846 -36.2842 -36.2838 -36.2836
    -5.5137  -5.2867  -4.7185  -4.6396  -4.4685  -4.4428  -4.4196  -4.3850
     0.9878   1.0289   1.2233   1.2515   1.2632   1.2788   1.3797   1.3844
     1.4131   1.4164   2.5889   2.7069   3.5846   3.6453   3.8270   3.8907
     4.1588   4.2644   4.3525   4.4020   4.4800   4.6756   4.9915   5.0186
     5.0906   5.2417   5.3136   5.3787   5.7611   5.9261   6.0649   6.2604
     6.2970   6.3447   6.7881   6.8750   6.9019   6.9313   7.0355   7.0648
     7.0867   7.1752   7.4170   7.4526   7.6011   7.7237   8.5046   8.8737
     9.0217   9.0248   9.2295   9.3410   9.7143   9.8283  11.1566  11.1961
    13.1235  13.3053  13.5000  13.7156  14.0585  14.1298  14.2435  14.4953
    14.6222  14.8166  15.0032  15.2540  15.3000  15.8514  15.9104  15.9595
    16.0576  16.2433  16.4448  17.0348  17.1350  17.2829  17.4443  17.4538
    17.8001  17.8221  18.0353  18.1695  18.3960  18.5018  19.0389  19.1177

          k = 0.3464-0.2449 0.6000 ( 13050 PWs)   bands (ev):

  -106.8205-106.8205 -64.8968 -64.8967 -64.8966 -64.8966 -55.1305 -55.1295
   -55.1292 -55.1287 -55.1286 -55.1285 -36.2943 -36.2934 -36.2898 -36.2896
   -36.2860 -36.2857 -36.2855 -36.2850 -36.2845 -36.2843 -36.2839 -36.2836
    -5.4361  -5.3615  -4.7188  -4.5771  -4.5742  -4.4647  -4.3827  -4.3699
     0.9851   1.0242   1.2007   1.2329   1.2675   1.2997   1.3921   1.3937
     1.4018   1.4066   2.7123   2.7344   3.5697   3.6894   3.8974   3.9402
     4.1580   4.3317   4.3558   4.4604   4.4808   4.6808   4.8033   4.8774
     4.9959   5.2018   5.2385   5.4603   5.6672   5.8831   6.0796   6.0991
     6.2400   6.6611   6.7977   6.8335   6.8621   6.9531   6.9889   7.0453
     7.2006   7.2263   7.4825   7.5258   7.5492   7.6582   8.4673   8.5460
     8.9135   8.9578   9.3157   9.4788   9.7273   9.9345  11.1553  11.3286
    13.0948  13.4736  13.6502  13.9244  14.0618  14.2626  14.2776  14.4043
    14.8178  15.0424  15.2238  15.3705  15.4617  15.7292  15.7875  15.8002
    15.8635  16.3002  16.6589  16.9055  17.0139  17.1260  17.3198  17.4272
    17.5036  17.6515  17.7681  18.2334  18.3271  18.3793  18.6160  18.7760

          k = 0.1155-0.1633 0.6000 ( 13044 PWs)   bands (ev):

  -106.8205-106.8205 -64.8969 -64.8967 -64.8966 -64.8966 -55.1303 -55.1300
   -55.1291 -55.1288 -55.1281 -55.1281 -36.2949 -36.2928 -36.2899 -36.2897
   -36.2860 -36.2858 -36.2853 -36.2849 -36.2846 -36.2842 -36.2838 -36.2836
    -5.5137  -5.2867  -4.7185  -4.6396  -4.4685  -4.4428  -4.4196  -4.3850
     0.9878   1.0289   1.2233   1.2515   1.2632   1.2788   1.3797   1.3844
     1.4131   1.4164   2.5889   2.7069   3.5846   3.6453   3.8270   3.8907
     4.1588   4.2644   4.3525   4.4020   4.4800   4.6756   4.9915   5.0186
     5.0906   5.2417   5.3136   5.3787   5.7611   5.9261   6.0649   6.2604
     6.2970   6.3447   6.7881   6.8750   6.9019   6.9313   7.0355   7.0648
     7.0867   7.1752   7.4170   7.4526   7.6011   7.7237   8.5046   8.8737
     9.0217   9.0248   9.2295   9.3410   9.7143   9.8283  11.1566  11.1961
    13.1235  13.3053  13.5000  13.7156  14.0585  14.1298  14.2435  14.4953
    14.6222  14.8166  15.0032  15.2540  15.3000  15.8514  15.9104  15.9595
    16.0576  16.2433  16.4448  17.0348  17.1350  17.2829  17.4443  17.4538
    17.8001  17.8221  18.0353  18.1695  18.3959  18.5018  19.0389  19.1177

          k = 0.0000 0.0000 0.4000 ( 13111 PWs)   bands (ev):

  -106.8205-106.8205 -64.8969 -64.8966 -64.8966 -64.8966 -55.1310 -55.1306
   -55.1301 -55.1298 -55.1297 -55.1292 -36.2965 -36.2915 -36.2904 -36.2902
   -36.2858 -36.2856 -36.2855 -36.2849 -36.2846 -36.2838 -36.2836 -36.2833
    -5.7211  -5.1164  -4.6601  -4.5131  -4.4971  -4.4557  -4.4478  -4.3935
     1.0317   1.1141   1.2288   1.2452   1.2718   1.3242   1.3509   1.3534
     1.4344   1.4354   2.0609   2.4516   3.0970   3.3259   3.5183   4.0567
     4.1141   4.2201   4.4345   4.5976   4.8555   5.0426   5.0456   5.2691
     5.3281   5.3912   5.4100   5.5930   5.8044   6.2176   6.2208   6.3282
     6.4330   6.5441   6.7155   6.7289   6.8488   6.8996   6.9160   7.0583
     7.0635   7.0949   7.1302   7.2644   7.7611   7.8653   8.4202   9.3080
     9.3372   9.3438   9.5231   9.6356   9.7176   9.9332  10.4495  10.6351
    12.3031  12.3919  12.4582  13.2452  13.4994  13.6391  13.8533  13.9371
    14.5273  14.6326  14.6953  15.1083  15.2450  15.5942  16.1469  16.3774
    16.4565  16.7623  16.8267  17.1603  17.5814  17.6707  18.0313  18.1091
    18.2130  18.4904  18.7518  18.8973  19.1458  19.3895  19.5724  19.7536

          k =-0.2309 0.0816 0.4000 ( 13041 PWs)   bands (ev):

  -106.8205-106.8205 -64.8969 -64.8967 -64.8966 -64.8966 -55.1298 -55.1294
   -55.1293 -55.1288 -55.1287 -55.1282 -36.2960 -36.2919 -36.2901 -36.2901
   -36.2858 -36.2857 -36.2853 -36.2850 -36.2847 -36.2838 -36.2837 -36.2834
    -5.6611  -5.1667  -4.6559  -4.5569  -4.5332  -4.4672  -4.4024  -4.3883
     1.0204   1.0710   1.2352   1.2532   1.2727   1.2801   1.3572   1.3633
     1.4298   1.4300   2.2461   2.5369   3.3226   3.3704   3.6731   4.0467
     4.1212   4.1809   4.4161   4.5104   4.7646   4.9622   5.0366   5.1203
     5.1656   5.2617   5.4191   5.6347   5.7463   5.8872   6.2521   6.2714
     6.3868   6.7474   6.7506   6.7908   6.8674   6.8838   6.9753   7.0312
     7.0755   7.0897   7.2026   7.2736   7.7688   7.8071   8.3276   9.0266
     9.1871   9.2778   9.5190   9.5389   9.7601   9.9767  10.7237  10.7675
    12.5626  12.7739  12.7928  13.2765  13.4826  13.8907  14.0490  14.2411
    14.3745  14.5653  14.7770  15.3457  15.4792  16.0683  16.1083  16.3969
    16.4777  16.6176  16.9129  17.0104  17.2072  17.2961  17.5245  17.8066
    17.9419  18.1628  18.3533  18.4926  18.6750  18.9265  19.3673  19.4744

          k =-0.4619 0.1633 0.4000 ( 13044 PWs)   bands (ev):

  -106.8205-106.8205 -64.8968 -64.8967 -64.8966 -64.8966 -55.1303 -55.1300
   -55.1291 -55.1288 -55.1281 -55.1281 -36.2949 -36.2929 -36.2899 -36.2897
   -36.2860 -36.2858 -36.2853 -36.2849 -36.2846 -36.2842 -36.2838 -36.2836
    -5.5137  -5.2867  -4.7185  -4.6396  -4.4685  -4.4428  -4.4196  -4.3850
     0.9878   1.0289   1.2233   1.2515   1.2632   1.2788   1.3797   1.3844
     1.4131   1.4164   2.5889   2.7069   3.5846   3.6453   3.8270   3.8907
     4.1588   4.2644   4.3525   4.4020   4.4800   4.6756   4.9915   5.0186
     5.0906   5.2417   5.3136   5.3787   5.7611   5.9261   6.0649   6.2604
     6.2970   6.3447   6.7881   6.8750   6.9019   6.9313   7.0355   7.0648
     7.0867   7.1752   7.4170   7.4526   7.6011   7.7237   8.5046   8.8736
     9.0217   9.0248   9.2295   9.3410   9.7143   9.8283  11.1566  11.1961
    13.1235  13.3053  13.5000  13.7156  14.0585  14.1298  14.2435  14.4953
    14.6222  14.8166  15.0032  15.2540  15.3000  15.8514  15.9104  15.9595
    16.0576  16.2433  16.4449  17.0348  17.1350  17.2829  17.4443  17.4538
    17.8001  17.8221  18.0353  18.1695  18.3959  18.5018  19.0389  19.1177

          k = 0.4619 0.3266 0.0000 ( 13019 PWs)   bands (ev):

  -106.8205-106.8205 -64.8969 -64.8967 -64.8966 -64.8965 -55.1294 -55.1294
   -55.1289 -55.1282 -55.1282 -55.1281 -36.2951 -36.2928 -36.2898 -36.2897
   -36.2859 -36.2856 -36.2853 -36.2852 -36.2849 -36.2841 -36.2836 -36.2835
    -5.5540  -5.2542  -4.5861  -4.5848  -4.5847  -4.5828  -4.3614  -4.3614
     1.0214   1.0222   1.2063   1.2063   1.2915   1.2916   1.3704   1.3797
     1.4162   1.4187   2.5298   2.6838   3.6125   3.6125   3.6413   3.9705
     4.2457   4.2886   4.4102   4.4840   4.8017   4.8017   4.8076   4.8658
     4.8658   5.2542   5.2919   5.4774   5.7087   5.7087   6.1108   6.1108
     6.6870   6.7277   6.7408   6.7408   6.8673   6.8674   6.9640   6.9738
     7.1833   7.2984   7.3814   7.3814   7.7272   7.7272   8.1471   8.6094
     8.9363   8.9363   9.6090   9.6090   9.9273   9.9400  11.0061  11.1698
    12.8542  13.1442  13.4422  13.4422  13.9624  13.9679  13.9679  14.1489
    15.0569  15.0569  15.1234  15.7940  16.0252  16.0252  16.0435  16.2098
    16.2185  16.3745  16.3745  16.8122  16.8122  17.0253  17.0703  17.2504
    17.3554  17.8674  17.9797  18.1353  18.3427  18.3427  19.0329  19.0330

          k = 0.2309 0.4082 0.0000 ( 13041 PWs)   bands (ev):

  -106.8205-106.8205 -64.8969 -64.8967 -64.8966 -64.8966 -55.1297 -55.1294
   -55.1293 -55.1288 -55.1287 -55.1282 -36.2960 -36.2919 -36.2901 -36.2901
   -36.2858 -36.2856 -36.2853 -36.2850 -36.2847 -36.2838 -36.2837 -36.2833
    -5.6611  -5.1667  -4.6559  -4.5569  -4.5332  -4.4672  -4.4024  -4.3883
     1.0204   1.0710   1.2351   1.2532   1.2727   1.2801   1.3572   1.3633
     1.4298   1.4300   2.2461   2.5369   3.3226   3.3704   3.6731   4.0467
     4.1212   4.1809   4.4161   4.5104   4.7646   4.9622   5.0366   5.1203
     5.1656   5.2617   5.4191   5.6347   5.7463   5.8872   6.2521   6.2714
     6.3868   6.7474   6.7506   6.7909   6.8674   6.8838   6.9753   7.0312
     7.0755   7.0897   7.2026   7.2737   7.7688   7.8071   8.3276   9.0266
     9.1871   9.2779   9.5190   9.5389   9.7601   9.9767  10.7237  10.7675
    12.5626  12.7739  12.7928  13.2765  13.4826  13.8907  14.0490  14.2411
    14.3745  14.5653  14.7770  15.3457  15.4792  16.0683  16.1083  16.3969
    16.4777  16.6176  16.9129  17.0104  17.2072  17.2961  17.5245  17.8066
    17.9419  18.1628  18.3532  18.4926  18.6750  18.9265  19.3673  19.4743

          k = 0.0000 0.4899 0.0000 ( 13067 PWs)   bands (ev):

  -106.8205-106.8205 -64.8969 -64.8967 -64.8966 -64.8966 -55.1301 -55.1301
   -55.1296 -55.1291 -55.1290 -55.1287 -36.2962 -36.2914 -36.2903 -36.2903
   -36.2858 -36.2855 -36.2855 -36.2848 -36.2848 -36.2838 -36.2838 -36.2832
    -5.6628  -5.1941  -4.6294  -4.5179  -4.5179  -4.4473  -4.4276  -4.4276
     1.0061   1.0923   1.2520   1.2520   1.2741   1.2741   1.3640   1.3640
     1.4310   1.4310   2.1977   2.5015   3.2882   3.2882   3.8971   3.9674
     3.9674   4.4166   4.4166   4.4174   4.7466   5.0245   5.0245   5.0379
     5.1125   5.1125   5.3226   5.8125   5.8125   6.0520   6.0521   6.5636
     6.6208   6.6607   6.6607   6.8544   6.8544   6.8634   6.9390   6.9390
     7.0573   7.2056   7.2658   7.2658   7.7031   7.7031   8.3894   9.1940
     9.1940   9.3907   9.3907   9.6554   9.9821   9.9821  10.3693  10.4760
    12.6341  12.6341  12.6763  13.1391  13.6156  13.6187  13.6187  13.9611
    14.5923  14.5923  15.1612  15.1612  15.2719  16.4113  16.4113  16.6507
    16.6507  16.9323  17.1178  17.2878  17.2878  17.6197  17.6197  17.6257
    17.9592  18.1275  18.1275  18.3821  18.3821  19.2422  19.3270  19.4435

          k = 0.9238 0.1633 0.0000 ( 13046 PWs)   bands (ev):

  -106.8205-106.8205 -64.8969 -64.8967 -64.8966 -64.8966 -55.1300 -55.1299
   -55.1290 -55.1289 -55.1286 -55.1282 -36.2955 -36.2922 -36.2901 -36.2899
   -36.2860 -36.2856 -36.2855 -36.2847 -36.2847 -36.2842 -36.2839 -36.2833
    -5.5692  -5.2551  -4.7152  -4.5388  -4.5162  -4.4504  -4.4078  -4.4048
     0.9825   1.0654   1.2196   1.2314   1.2731   1.3001   1.3734   1.3735
     1.4215   1.4227   2.4840   2.5894   3.4398   3.5829   3.7707   3.9849
     4.1491   4.2319   4.3892   4.3996   4.5922   4.7894   4.9610   4.9945
     5.1151   5.2142   5.2763   5.6047   5.7220   6.0218   6.0458   6.2736
     6.4026   6.6366   6.7593   6.7906   6.8573   6.8975   6.9942   7.0990
     7.1101   7.1965   7.3586   7.4034   7.5349   7.7344   8.4691   9.0148
     9.1039   9.1321   9.3297   9.5203   9.5733   9.9365  10.8133  10.9587
    12.8747  13.2863  13.3205  13.5482  13.7376  13.7974  13.9514  14.0517
    14.6195  14.8433  15.0589  15.1270  15.4000  16.0577  16.2759  16.2770
    16.4041  16.6682  16.8109  17.1415  17.1932  17.2318  17.3795  17.5923
    17.8028  17.8476  18.0052  18.1658  18.5631  18.6641  18.9867  19.0244

          k = 0.6928 0.2449 0.0000 ( 13050 PWs)   bands (ev):

  -106.8205-106.8205 -64.8968 -64.8968 -64.8966 -64.8966 -55.1305 -55.1295
   -55.1292 -55.1287 -55.1287 -55.1284 -36.2943 -36.2935 -36.2897 -36.2897
   -36.2860 -36.2857 -36.2855 -36.2850 -36.2845 -36.2843 -36.2839 -36.2835
    -5.4361  -5.3615  -4.7188  -4.5771  -4.5742  -4.4647  -4.3827  -4.3699
     0.9851   1.0242   1.2007   1.2329   1.2675   1.2997   1.3921   1.3937
     1.4018   1.4066   2.7123   2.7344   3.5697   3.6894   3.8974   3.9402
     4.1579   4.3317   4.3558   4.4604   4.4808   4.6808   4.8033   4.8774
     4.9959   5.2018   5.2386   5.4603   5.6672   5.8831   6.0796   6.0991
     6.2400   6.6611   6.7977   6.8335   6.8621   6.9531   6.9889   7.0453
     7.2006   7.2263   7.4825   7.5258   7.5492   7.6582   8.4673   8.5460
     8.9135   8.9578   9.3157   9.4788   9.7273   9.9345  11.1553  11.3286
    13.0948  13.4736  13.6502  13.9245  14.0618  14.2626  14.2776  14.4043
    14.8178  15.0424  15.2239  15.3705  15.4617  15.7292  15.7875  15.8002
    15.8635  16.3002  16.6589  16.9055  17.0139  17.1260  17.3198  17.4272
    17.5036  17.6515  17.7681  18.2334  18.3271  18.3793  18.6160  18.7761

          k = 0.0000 0.0000 0.8000 ( 13050 PWs)   bands (ev):

  -106.8205-106.8205 -64.8968 -64.8967 -64.8966 -64.8966 -55.1305 -55.1295
   -55.1292 -55.1287 -55.1286 -55.1285 -36.2943 -36.2934 -36.2898 -36.2896
   -36.2860 -36.2857 -36.2855 -36.2850 -36.2845 -36.2843 -36.2839 -36.2836
    -5.4361  -5.3615  -4.7188  -4.5771  -4.5742  -4.4647  -4.3827  -4.3699
     0.9851   1.0242   1.2007   1.2329   1.2675   1.2997   1.3921   1.3937
     1.4018   1.4066   2.7123   2.7344   3.5697   3.6894   3.8974   3.9402
     4.1580   4.3317   4.3558   4.4604   4.4808   4.6808   4.8033   4.8774
     4.9959   5.2018   5.2385   5.4603   5.6672   5.8831   6.0796   6.0991
     6.2400   6.6611   6.7977   6.8335   6.8621   6.9532   6.9889   7.0453
     7.2006   7.2263   7.4825   7.5258   7.5492   7.6582   8.4673   8.5460
     8.9135   8.9578   9.3157   9.4788   9.7273   9.9345  11.1553  11.3286
    13.0948  13.4736  13.6502  13.9244  14.0618  14.2626  14.2776  14.4043
    14.8178  15.0424  15.2239  15.3705  15.4617  15.7292  15.7875  15.8002
    15.8635  16.3002  16.6589  16.9055  17.0139  17.1260  17.3198  17.4272
    17.5036  17.6515  17.7681  18.2334  18.3271  18.3793  18.6160  18.7760

          k =-0.2309 0.0816 0.8000 ( 13044 PWs)   bands (ev):

  -106.8205-106.8205 -64.8969 -64.8967 -64.8966 -64.8965 -55.1303 -55.1300
   -55.1291 -55.1288 -55.1281 -55.1281 -36.2949 -36.2928 -36.2899 -36.2897
   -36.2860 -36.2858 -36.2853 -36.2849 -36.2846 -36.2842 -36.2838 -36.2836
    -5.5137  -5.2867  -4.7185  -4.6396  -4.4685  -4.4428  -4.4196  -4.3850
     0.9878   1.0289   1.2233   1.2515   1.2632   1.2788   1.3797   1.3844
     1.4131   1.4164   2.5889   2.7069   3.5846   3.6453   3.8270   3.8907
     4.1588   4.2644   4.3525   4.4020   4.4800   4.6756   4.9915   5.0186
     5.0906   5.2417   5.3136   5.3787   5.7611   5.9261   6.0649   6.2604
     6.2970   6.3447   6.7881   6.8750   6.9019   6.9313   7.0355   7.0648
     7.0867   7.1752   7.4170   7.4526   7.6011   7.7237   8.5046   8.8737
     9.0217   9.0248   9.2295   9.3410   9.7143   9.8283  11.1566  11.1961
    13.1235  13.3053  13.5000  13.7156  14.0585  14.1298  14.2435  14.4953
    14.6222  14.8166  15.0032  15.2540  15.3000  15.8514  15.9104  15.9595
    16.0576  16.2433  16.4448  17.0348  17.1350  17.2829  17.4443  17.4538
    17.8001  17.8221  18.0353  18.1695  18.3959  18.5018  19.0389  19.1177

          k =-0.4619 0.1633 0.8000 ( 13046 PWs)   bands (ev):

  -106.8205-106.8205 -64.8969 -64.8967 -64.8966 -64.8966 -55.1300 -55.1299
   -55.1290 -55.1289 -55.1286 -55.1282 -36.2955 -36.2922 -36.2901 -36.2899
   -36.2860 -36.2856 -36.2855 -36.2847 -36.2847 -36.2842 -36.2840 -36.2833
    -5.5692  -5.2551  -4.7152  -4.5388  -4.5162  -4.4504  -4.4078  -4.4048
     0.9825   1.0654   1.2196   1.2314   1.2731   1.3002   1.3734   1.3735
     1.4215   1.4227   2.4840   2.5894   3.4398   3.5829   3.7707   3.9849
     4.1491   4.2319   4.3892   4.3996   4.5922   4.7894   4.9610   4.9945
     5.1151   5.2142   5.2764   5.6047   5.7220   6.0218   6.0458   6.2736
     6.4026   6.6366   6.7593   6.7906   6.8573   6.8975   6.9942   7.0990
     7.1101   7.1966   7.3586   7.4034   7.5349   7.7344   8.4691   9.0148
     9.1039   9.1321   9.3297   9.5203   9.5734   9.9365  10.8133  10.9587
    12.8747  13.2863  13.3205  13.5482  13.7376  13.7974  13.9514  14.0517
    14.6195  14.8433  15.0589  15.1270  15.4000  16.0577  16.2759  16.2770
    16.4041  16.6682  16.8109  17.1415  17.1932  17.2318  17.3795  17.5923
    17.8028  17.8476  18.0052  18.1658  18.5631  18.6641  18.9867  19.0244

 ------ SPIN DOWN ----------


          k = 0.0000 0.0000 0.0000 ( 13107 PWs)   bands (ev):

  -106.8331-106.8331 -62.0215 -62.0211 -62.0210 -62.0210 -55.1435 -55.1434
   -55.1434 -55.1433 -55.1433 -55.1432 -33.3462 -33.3354 -33.3353 -33.3353
   -33.2732 -33.2732 -33.2731 -33.2728 -33.2728 -33.2694 -33.2694 -33.2694
    -5.9870  -5.1250  -4.6598  -4.6598  -4.6598  -4.5935  -4.5935  -4.5935
     1.2545   1.2545   1.2545   1.3173   1.3173   1.3283   1.3283   1.3283
     1.4467   1.4468   1.4868   2.0415   3.0057   3.0057   3.0057   4.1712
     4.1712   5.2192   5.2192   5.5417   5.5417   5.5417   5.8210   5.8210
     5.8210   6.2739   6.2739   6.2739   6.3355   6.3355   6.3356   7.3900
     7.7493   7.7493   7.7493   8.6024   8.8166   8.8166   9.3685   9.3685
     9.3685   9.7953   9.7953   9.7953   9.8554   9.8554   9.8555  10.3676
    11.0073  11.0073  11.0073  11.2082  11.2082  11.2082  11.3811  11.3811
    12.0024  12.0024  12.0024  12.8284  12.8284  12.8284  13.6315  14.6151
    14.6151  14.6151  15.5223  15.5223  16.1774  16.1774  16.1774  16.2023
    16.2023  16.6545  16.6545  16.6545  18.3100  18.7374  19.3030  19.3030
    19.3030  20.2347  20.3050  20.3050  20.3050  20.5014  20.5014  20.7834

          k =-0.2309 0.0816 0.0000 ( 13128 PWs)   bands (ev):

  -106.8332-106.8331 -62.0214 -62.0211 -62.0210 -62.0210 -55.1448 -55.1448
   -55.1443 -55.1432 -55.1432 -55.1424 -33.3455 -33.3361 -33.3353 -33.3353
   -33.2732 -33.2730 -33.2730 -33.2727 -33.2727 -33.2698 -33.2698 -33.2694
    -5.9190  -5.1729  -4.7320  -4.6633  -4.6633  -4.5920  -4.5920  -4.5833
     1.1323   1.1828   1.2495   1.2495   1.3069   1.3069   1.3351   1.3352
     1.4414   1.4414   1.8103   2.2462   3.1583   3.1583   3.3462   4.1854
     4.1854   5.0748   5.1190   5.1190   5.4767   5.4767   5.7353   5.7353
     5.7488   5.8146   6.1852   6.1852   6.3761   6.4046   6.4046   6.6909
     7.6281   7.6281   8.1335   8.8596   8.9795   8.9795   9.4523   9.4524
     9.5180   9.8005   9.8005   9.8398   9.8398   9.8479   9.9777  10.7044
    10.9201  10.9201  10.9737  10.9737  11.0849  11.0894  11.2462  11.2462
    12.1121  12.2262  12.2262  13.1328  13.4268  13.4268  13.6725  14.5266
    14.7385  14.7385  15.6784  15.6784  15.9054  15.9054  16.0209  16.4437
    16.4437  16.5895  16.9371  16.9371  18.6472  18.9054  19.1927  19.2951
    19.2951  19.4339  19.4339  19.6347  19.7279  19.8347  19.8347  20.3601

          k =-0.4619 0.1633 0.0000 ( 13067 PWs)   bands (ev):

  -106.8331-106.8331 -62.0213 -62.0212 -62.0210 -62.0210 -55.1436 -55.1436
   -55.1431 -55.1425 -55.1425 -55.1422 -33.3439 -33.3377 -33.3352 -33.3352
   -33.2733 -33.2729 -33.2729 -33.2720 -33.2720 -33.2705 -33.2705 -33.2694
    -5.7596  -5.3221  -4.7892  -4.6688  -4.6688  -4.6027  -4.5899  -4.5899
     1.0221   1.0906   1.2489   1.2489   1.2735   1.2735   1.3621   1.3621
     1.4284   1.4284   2.2712   2.5345   3.5264   3.5264   4.1027   4.1027
     4.1485   4.6053   4.9134   4.9134   4.9397   5.3019   5.3019   5.5053
     5.6308   5.6308   5.6659   6.0879   6.0879   6.5096   6.6648   6.6648
     7.3632   7.3632   8.6516   8.9919   9.1714   9.1714   9.5588   9.5796
     9.5796   9.8174   9.8174   9.8318   9.8318   9.8328  10.2696  10.6567
    10.6567  10.7296  10.7296  10.9129  11.0041  11.1133  11.1553  11.1553
    12.8354  12.8354  13.0153  13.4302  13.9088  14.0612  14.0612  14.4274
    14.8804  14.8804  15.5065  15.5065  15.6982  16.7706  16.7706  16.8888
    16.8888  17.2382  17.4321  17.4321  17.5631  17.7771  17.9777  17.9777
    18.2971  18.4225  18.4225  18.6234  18.6234  19.4831  19.4831  19.5449

          k = 0.1155 0.0816-0.2000 ( 13128 PWs)   bands (ev):

  -106.8332-106.8331 -62.0215 -62.0211 -62.0210 -62.0210 -55.1449 -55.1448
   -55.1443 -55.1432 -55.1432 -55.1424 -33.3455 -33.3360 -33.3354 -33.3353
   -33.2732 -33.2731 -33.2730 -33.2727 -33.2726 -33.2698 -33.2697 -33.2694
    -5.9190  -5.1729  -4.7320  -4.6633  -4.6633  -4.5920  -4.5920  -4.5833
     1.1322   1.1828   1.2495   1.2495   1.3069   1.3069   1.3351   1.3351
     1.4414   1.4414   1.8103   2.2462   3.1583   3.1583   3.3462   4.1854
     4.1854   5.0748   5.1190   5.1190   5.4767   5.4767   5.7353   5.7353
     5.7488   5.8146   6.1852   6.1852   6.3761   6.4046   6.4046   6.6909
     7.6281   7.6281   8.1335   8.8596   8.9794   8.9794   9.4523   9.4524
     9.5180   9.8005   9.8005   9.8398   9.8399   9.8479   9.9777  10.7044
    10.9201  10.9201  10.9737  10.9737  11.0849  11.0894  11.2461  11.2462
    12.1121  12.2262  12.2262  13.1328  13.4268  13.4268  13.6725  14.5266
    14.7385  14.7385  15.6784  15.6784  15.9054  15.9054  16.0209  16.4437
    16.4437  16.5895  16.9371  16.9371  18.6472  18.9054  19.1927  19.2951
    19.2952  19.4339  19.4339  19.6347  19.7279  19.8347  19.8347  20.3604

          k =-0.1155 0.1633-0.2000 ( 13047 PWs)   bands (ev):

  -106.8331-106.8331 -62.0214 -62.0211 -62.0210 -62.0209 -55.1434 -55.1433
   -55.1426 -55.1424 -55.1418 -55.1418 -33.3452 -33.3363 -33.3353 -33.3352
   -33.2731 -33.2729 -33.2729 -33.2729 -33.2725 -33.2697 -33.2697 -33.2697
    -5.8956  -5.1837  -4.6993  -4.6993  -4.6924  -4.6509  -4.5561  -4.5561
     1.1343   1.1420   1.2542   1.2542   1.2861   1.2861   1.3304   1.3352
     1.4392   1.4397   1.9236   2.3095   3.2810   3.2810   3.2850   4.1826
     4.2412   4.9527   5.1005   5.1339   5.3854   5.3854   5.6659   5.6659
     5.8238   5.8409   6.1461   6.2697   6.2697   6.3297   6.3297   6.6643
     7.4444   7.4444   8.3660   8.9689   8.9967   9.0784   9.3881   9.5646
     9.5646   9.8086   9.8086   9.8567   9.8802   9.9008   9.9008  10.6388
    10.8443  10.8443  10.9484  11.0536  11.0536  11.0814  11.1437  11.2757
    12.3183  12.3730  12.3730  13.1781  13.4618  13.4618  13.9586  14.4407
    14.8697  14.8697  15.5573  15.7444  15.9479  16.0566  16.0566  16.4745
    16.4772  16.5434  16.7617  16.7617  18.5541  18.9049  19.0195  19.0195
    19.0237  19.1233  19.3577  19.3577  19.5716  19.6644  20.1115  20.2850

          k =-0.3464 0.2449-0.2000 ( 13041 PWs)   bands (ev):

  -106.8331-106.8331 -62.0213 -62.0212 -62.0210 -62.0209 -55.1433 -55.1429
   -55.1428 -55.1423 -55.1422 -55.1417 -33.3437 -33.3378 -33.3352 -33.3352
   -33.2732 -33.2729 -33.2728 -33.2724 -33.2720 -33.2705 -33.2702 -33.2697
    -5.7584  -5.2951  -4.8095  -4.7098  -4.6872  -4.6289  -4.5600  -4.5482
     1.0353   1.0715   1.2320   1.2517   1.2692   1.2806   1.3562   1.3602
     1.4271   1.4276   2.3232   2.5831   3.5241   3.6067   3.8798   4.2382
     4.2490   4.3909   4.8522   4.9381   5.0600   5.3016   5.4310   5.5043
     5.6712   5.7076   5.7703   6.0375   6.1529   6.3642   6.4766   6.5350
     7.1420   7.2132   8.7412   9.1422   9.2227   9.2948   9.4905   9.6532
     9.6819   9.7706   9.7858   9.8382   9.8455   9.9711  10.1229  10.4587
    10.6260  10.6402  10.7465  10.8551  10.9529  11.1582  11.2235  11.3611
    12.8651  13.0284  13.0642  13.5593  13.8205  14.2842  14.4622  14.6005
    14.7894  14.9707  15.1827  15.7302  15.8243  16.3422  16.5087  16.6919
    16.7308  16.8445  17.1523  17.4120  17.4180  17.5873  17.7864  17.9793
    18.2245  18.4817  18.5942  18.6735  18.8989  19.1939  19.5164  19.6882

          k = 0.5774-0.0816-0.2000 ( 13046 PWs)   bands (ev):

  -106.8331-106.8331 -62.0213 -62.0212 -62.0210 -62.0209 -55.1435 -55.1433
   -55.1425 -55.1424 -55.1421 -55.1417 -33.3429 -33.3387 -33.3352 -33.3352
   -33.2733 -33.2730 -33.2727 -33.2719 -33.2716 -33.2709 -33.2706 -33.2696
    -5.6700  -5.3773  -4.8661  -4.6894  -4.6754  -4.6072  -4.5703  -4.5654
     0.9961   1.0672   1.2198   1.2291   1.2699   1.2958   1.3715   1.3720
     1.4190   1.4199   2.5573   2.6484   3.6829   3.8116   3.9756   4.1512
     4.3436   4.4505   4.6229   4.8211   4.9326   5.0260   5.2495   5.5549
     5.6232   5.6692   5.6786   5.9373   6.0644   6.4201   6.5420   6.7059
     6.8014   7.2209   8.9696   9.1143   9.2503   9.3787   9.6190   9.6198
     9.7030   9.7355   9.7834   9.8361   9.9375   9.9379  10.2337  10.3756
    10.5680  10.5826  10.6689  10.6745  10.8081  11.0796  11.3421  11.4593
    13.1336  13.4740  13.6445  13.8178  14.0372  14.3142  14.3170  14.5524
    14.8979  15.1186  15.4069  15.4383  15.7867  16.3474  16.5483  16.6152
    16.6281  16.9266  17.0727  17.4941  17.5544  17.6071  17.6253  17.8492
    18.0063  18.1684  18.1969  18.4252  18.8062  18.9006  19.1534  19.1676

          k = 0.3464 0.0000-0.2000 ( 13111 PWs)   bands (ev):

  -106.8332-106.8332 -62.0214 -62.0211 -62.0210 -62.0210 -55.1445 -55.1441
   -55.1436 -55.1433 -55.1432 -55.1427 -33.3444 -33.3372 -33.3353 -33.3353
   -33.2732 -33.2730 -33.2728 -33.2726 -33.2721 -33.2704 -33.2699 -33.2696
    -5.8160  -5.2497  -4.8130  -4.6726  -4.6463  -4.6122  -4.6117  -4.5511
     1.0479   1.1127   1.2295   1.2436   1.2714   1.3155   1.3498   1.3498
     1.4323   1.4330   2.1408   2.4796   3.3244   3.5535   3.7227   4.1905
     4.2258   4.4514   4.9941   5.0776   5.1808   5.4190   5.5235   5.6404
     5.6589   5.7863   5.9041   5.9964   6.2041   6.3717   6.5268   6.5402
     7.0715   7.5388   8.5639   9.0834   9.1333   9.2187   9.4620   9.5647
     9.7133   9.7228   9.7929   9.8474   9.8502   9.9131  10.1222  10.7027
    10.7264  10.7390  10.7821  10.8043  10.9260  11.1103  11.2146  11.2892
    12.5864  12.6523  12.7727  13.6658  13.7868  13.8930  14.0156  14.5873
    14.9241  14.9578  15.2086  15.5066  15.6645  15.9522  16.5680  16.6449
    16.7687  16.8350  17.1840  17.3183  17.8534  18.0915  18.2334  18.3381
    18.5004  18.7280  18.8866  19.1369  19.4722  19.6138  19.8272  19.9761

          k = 0.2309 0.1633-0.4000 ( 13067 PWs)   bands (ev):

  -106.8331-106.8331 -62.0214 -62.0211 -62.0210 -62.0210 -55.1436 -55.1436
   -55.1430 -55.1426 -55.1425 -55.1422 -33.3439 -33.3376 -33.3353 -33.3352
   -33.2733 -33.2730 -33.2729 -33.2719 -33.2719 -33.2706 -33.2705 -33.2694
    -5.7596  -5.3221  -4.7892  -4.6688  -4.6688  -4.6027  -4.5899  -4.5899
     1.0221   1.0906   1.2489   1.2489   1.2735   1.2735   1.3621   1.3621
     1.4284   1.4284   2.2712   2.5345   3.5264   3.5264   4.1027   4.1027
     4.1485   4.6053   4.9134   4.9134   4.9397   5.3019   5.3019   5.5053
     5.6308   5.6308   5.6659   6.0879   6.0879   6.5096   6.6648   6.6648
     7.3632   7.3632   8.6516   8.9919   9.1713   9.1714   9.5588   9.5796
     9.5796   9.8175   9.8175   9.8318   9.8318   9.8328  10.2696  10.6567
    10.6567  10.7295  10.7296  10.9129  11.0041  11.1133  11.1553  11.1553
    12.8354  12.8354  13.0153  13.4302  13.9087  14.0612  14.0612  14.4274
    14.8804  14.8804  15.5065  15.5065  15.6982  16.7706  16.7706  16.8888
    16.8888  17.2382  17.4321  17.4321  17.5631  17.7772  17.9777  17.9777
    18.2971  18.4225  18.4225  18.6234  18.6234  19.4831  19.4831  19.5449

          k = 0.0000 0.2449-0.4000 ( 13041 PWs)   bands (ev):

  -106.8331-106.8331 -62.0214 -62.0211 -62.0210 -62.0209 -55.1433 -55.1429
   -55.1428 -55.1423 -55.1422 -55.1417 -33.3437 -33.3378 -33.3353 -33.3352
   -33.2732 -33.2729 -33.2728 -33.2723 -33.2719 -33.2704 -33.2702 -33.2697
    -5.7584  -5.2951  -4.8095  -4.7098  -4.6872  -4.6288  -4.5600  -4.5482
     1.0353   1.0715   1.2320   1.2517   1.2692   1.2806   1.3562   1.3601
     1.4271   1.4276   2.3232   2.5831   3.5241   3.6067   3.8798   4.2382
     4.2490   4.3909   4.8522   4.9381   5.0600   5.3016   5.4310   5.5043
     5.6712   5.7076   5.7703   6.0375   6.1529   6.3642   6.4766   6.5350
     7.1419   7.2132   8.7412   9.1422   9.2227   9.2948   9.4905   9.6532
     9.6818   9.7706   9.7858   9.8382   9.8455   9.9711  10.1229  10.4587
    10.6260  10.6402  10.7465  10.8551  10.9528  11.1582  11.2235  11.3611
    12.8651  13.0283  13.0642  13.5593  13.8205  14.2842  14.4622  14.6005
    14.7894  14.9707  15.1827  15.7302  15.8243  16.3422  16.5087  16.6919
    16.7308  16.8445  17.1523  17.4120  17.4180  17.5873  17.7864  17.9793
    18.2245  18.4817  18.5942  18.6735  18.8989  19.1939  19.5164  19.6882

          k =-0.2309 0.3266-0.4000 ( 13019 PWs)   bands (ev):

  -106.8331-106.8331 -62.0213 -62.0211 -62.0210 -62.0209 -55.1429 -55.1429
   -55.1424 -55.1417 -55.1417 -55.1416 -33.3424 -33.3391 -33.3352 -33.3352
   -33.2731 -33.2730 -33.2725 -33.2724 -33.2716 -33.2706 -33.2703 -33.2702
    -5.6563  -5.3743  -4.7454  -4.7382  -4.7369  -4.7369  -4.5217  -4.5217
     1.0250   1.0331   1.2056   1.2056   1.2897   1.2897   1.3692   1.3764
     1.4136   1.4162   2.6111   2.7574   3.7717   3.8508   3.8508   4.1386
     4.4548   4.4873   4.7861   4.8689   5.0461   5.0965   5.0965   5.2368
     5.2368   5.5503   5.8936   5.9831   6.2495   6.2495   6.5443   6.5443
     6.9574   6.9574   8.8627   9.0767   9.3832   9.5378   9.6233   9.6751
     9.6752   9.7656   9.7657   9.8044   9.8890  10.0973  10.0973  10.1713
    10.4218  10.4218  10.9465  10.9465  11.0392  11.0860  11.2303  11.5326
    13.1816  13.3388  13.7713  13.7713  14.2618  14.2618  14.7090  14.8215
    15.2036  15.2036  15.3132  16.0134  16.3956  16.3956  16.4714  16.4794
    16.6254  16.7283  16.7283  17.0358  17.0951  17.0951  17.3663  17.4367
    17.6593  18.1120  18.2355  18.3979  18.4983  18.4984  19.2397  19.2397

          k = 0.6928 0.0000-0.4000 ( 13050 PWs)   bands (ev):

  -106.8331-106.8331 -62.0213 -62.0212 -62.0210 -62.0210 -55.1440 -55.1430
   -55.1427 -55.1422 -55.1421 -55.1420 -33.3413 -33.3403 -33.3352 -33.3352
   -33.2732 -33.2730 -33.2725 -33.2720 -33.2715 -33.2709 -33.2706 -33.2701
    -5.5440  -5.4746  -4.8685  -4.7323  -4.7285  -4.6242  -4.5427  -4.5311
     0.9946   1.0308   1.2012   1.2298   1.2640   1.2960   1.3900   1.3913
     1.3999   1.4037   2.8005   2.8153   3.7432   3.9361   4.0440   4.1685
     4.3736   4.5468   4.6641   4.7254   4.7460   4.9751   5.1059   5.3256
     5.3575   5.6047   5.8137   5.9538   6.1112   6.3238   6.5331   6.5872
     6.7207   6.9001   9.0793   9.0827   9.4160   9.6325   9.6555   9.6694
     9.6844   9.7001   9.8165   9.9108   9.9943  10.0482  10.0808  10.1017
    10.3125  10.4041  10.6842  10.8281  10.8751  11.0519  11.4559  11.6692
    13.4001  13.7133  14.0686  14.2049  14.6021  14.6270  14.6764  14.7637
    15.1062  15.1985  15.5141  15.6616  15.7772  16.0227  16.0312  16.1402
    16.2292  16.6247  16.9695  17.2646  17.3010  17.3214  17.5347  17.6563
    17.7103  17.9366  17.9423  18.5597  18.6045  18.6075  18.9058  18.9738

          k = 0.4619 0.0816-0.4000 ( 13046 PWs)   bands (ev):

  -106.8331-106.8331 -62.0213 -62.0211 -62.0210 -62.0209 -55.1436 -55.1433
   -55.1425 -55.1424 -55.1421 -55.1417 -33.3429 -33.3386 -33.3352 -33.3352
   -33.2733 -33.2730 -33.2728 -33.2718 -33.2715 -33.2710 -33.2706 -33.2697
    -5.6700  -5.3773  -4.8661  -4.6894  -4.6754  -4.6072  -4.5703  -4.5654
     0.9961   1.0672   1.2198   1.2291   1.2699   1.2958   1.3715   1.3720
     1.4190   1.4199   2.5573   2.6484   3.6829   3.8116   3.9756   4.1512
     4.3436   4.4505   4.6229   4.8211   4.9326   5.0260   5.2495   5.5549
     5.6232   5.6692   5.6786   5.9374   6.0644   6.4201   6.5420   6.7059
[...]
    -5.6503  -5.4382  -4.8605  -4.7843  -4.6255  -4.6009  -4.5752  -4.5438
     1.0309   1.0656   1.2535   1.2813   1.2915   1.3067   1.4097   1.4132
     1.4422   1.4450   2.6893   2.8000   3.7663   3.8347   4.0156   4.0859
     4.3328   4.4580   4.5920   4.6758   4.7547   4.9261   5.3993   5.4448
     5.5380   5.6622   5.7673   5.8299   6.1705   6.2862   6.5260   6.5489
     6.7311   7.0000   9.0319   9.2003   9.4194   9.4486   9.5108   9.6621
     9.7301   9.8033   9.8173   9.8585   9.9624  10.0264  10.0895  10.2606
    10.3767  10.4316  10.6725  10.7385  10.8800  11.0020  11.5435  11.5561
    13.3510  13.5342  13.9069  13.9810  14.3714  14.5664  14.6988  14.7887
    15.0569  15.0679  15.3188  15.5420  15.6867  16.1004  16.2504  16.3114
    16.3425  16.5457  16.8269  17.3076  17.3989  17.6197  17.6313  17.7268
    17.9878  18.1176  18.3536  18.4831  18.7237  18.7521  19.2334  19.2968

          k = 0.0000 0.0000 0.4000 ( 13111 PWs)   bands (ev):

  -106.8075-106.8075 -62.0191 -62.0188 -62.0187 -62.0187 -55.1185 -55.1180
   -55.1176 -55.1173 -55.1172 -55.1166 -33.3488 -33.3415 -33.3396 -33.3396
   -33.2699 -33.2696 -33.2693 -33.2692 -33.2687 -33.2669 -33.2665 -33.2661
    -5.8458  -5.2812  -4.8070  -4.6703  -4.6460  -4.6076  -4.6073  -4.5503
     1.0783   1.1432   1.2625   1.2757   1.3036   1.3474   1.3812   1.3814
     1.4634   1.4641   2.1518   2.4984   3.3083   3.5366   3.7108   4.1739
     4.2074   4.4372   4.9523   5.0389   5.1568   5.3977   5.5198   5.6341
     5.6501   5.7695   5.8921   5.9895   6.2030   6.3738   6.5438   6.5499
     7.0710   7.5490   8.5414   9.0593   9.1308   9.2159   9.4536   9.5604
     9.7112   9.7116   9.7899   9.8440   9.8473   9.9063  10.1061  10.7152
    10.7354  10.7558  10.8017  10.8074  10.9509  11.1387  11.2128  11.2823
    12.5770  12.6509  12.7745  13.6655  13.7900  13.8920  14.0240  14.5847
    14.9097  14.9570  15.2144  15.4934  15.6795  15.9771  16.6008  16.6488
    16.7730  16.8158  17.2033  17.3070  17.8708  18.1174  18.2700  18.3562
    18.4967  18.7577  18.9185  19.1719  19.4796  19.6247  19.8202  19.9126

          k =-0.2309 0.0816 0.4000 ( 13041 PWs)   bands (ev):

  -106.8075-106.8075 -62.0191 -62.0188 -62.0187 -62.0187 -55.1173 -55.1169
   -55.1168 -55.1163 -55.1162 -55.1157 -33.3482 -33.3421 -33.3395 -33.3395
   -33.2698 -33.2696 -33.2694 -33.2689 -33.2685 -33.2670 -33.2668 -33.2662
    -5.7890  -5.3271  -4.8041  -4.7073  -4.6823  -4.6255  -4.5582  -4.5464
     1.0661   1.1023   1.2647   1.2840   1.3010   1.3126   1.3876   1.3917
     1.4582   1.4588   2.3354   2.6013   3.5103   3.5873   3.8638   4.2198
     4.2327   4.3749   4.8228   4.9084   5.0286   5.2749   5.4221   5.4989
     5.6574   5.6931   5.7615   6.0295   6.1482   6.3641   6.4948   6.5472
     7.1471   7.2213   8.7251   9.1228   9.2160   9.2932   9.4892   9.6380
     9.6754   9.7699   9.7807   9.8356   9.8394   9.9702  10.1139  10.4670
    10.6429  10.6530  10.7579  10.8704  10.9774  11.1833  11.2116  11.3413
    12.8661  13.0171  13.0558  13.5589  13.8180  14.2855  14.4724  14.5871
    14.7912  14.9594  15.1854  15.7366  15.8343  16.3511  16.5315  16.6967
    16.7357  16.8456  17.1522  17.4273  17.4279  17.6003  17.7959  18.0044
    18.2621  18.5050  18.6241  18.7003  18.9236  19.2233  19.5133  19.6743

          k =-0.4619 0.1633 0.4000 ( 13044 PWs)   bands (ev):

  -106.8075-106.8075 -62.0190 -62.0189 -62.0187 -62.0187 -55.1178 -55.1175
   -55.1166 -55.1163 -55.1156 -55.1156 -33.3466 -33.3438 -33.3395 -33.3395
   -33.2698 -33.2697 -33.2690 -33.2687 -33.2679 -33.2677 -33.2670 -33.2666
    -5.6503  -5.4382  -4.8605  -4.7843  -4.6255  -4.6009  -4.5752  -4.5438
     1.0309   1.0656   1.2535   1.2813   1.2915   1.3067   1.4097   1.4132
     1.4422   1.4450   2.6893   2.8000   3.7663   3.8347   4.0156   4.0859
     4.3328   4.4580   4.5920   4.6758   4.7547   4.9261   5.3993   5.4448
     5.5380   5.6622   5.7673   5.8299   6.1705   6.2862   6.5260   6.5489
     6.7311   7.0000   9.0319   9.2003   9.4194   9.4486   9.5108   9.6621
     9.7301   9.8033   9.8173   9.8585   9.9624  10.0264  10.0895  10.2606
    10.3767  10.4316  10.6725  10.7385  10.8800  11.0020  11.5435  11.5561
    13.3510  13.5341  13.9069  13.9811  14.3714  14.5664  14.6988  14.7887
    15.0569  15.0679  15.3188  15.5420  15.6867  16.1004  16.2504  16.3114
    16.3425  16.5457  16.8269  17.3076  17.3989  17.6197  17.6313  17.7268
    17.9878  18.1176  18.3535  18.4831  18.7237  18.7521  19.2334  19.2968

          k = 0.4619 0.3266 0.0000 ( 13019 PWs)   bands (ev):

  -106.8075-106.8075 -62.0190 -62.0189 -62.0187 -62.0187 -55.1169 -55.1169
   -55.1164 -55.1157 -55.1157 -55.1156 -33.3469 -33.3434 -33.3395 -33.3395
   -33.2697 -33.2696 -33.2690 -33.2690 -33.2682 -33.2671 -33.2668 -33.2668
    -5.6877  -5.4081  -4.7382  -4.7343  -4.7343  -4.7310  -4.5201  -4.5201
     1.0561   1.0636   1.2384   1.2384   1.3215   1.3215   1.4003   1.4081
     1.4447   1.4475   2.6270   2.7756   3.7592   3.8288   3.8288   4.1169
     4.4341   4.4665   4.7562   4.8337   5.0256   5.0826   5.0826   5.2303
     5.2303   5.5382   5.8804   5.9750   6.2443   6.2443   6.5590   6.5590
     6.9685   6.9685   8.8566   9.0666   9.3751   9.5371   9.6199   9.6647
     9.6647   9.7629   9.7629   9.8033   9.8741  10.0964  10.0964  10.1760
    10.4365  10.4365  10.9587  10.9587  11.0649  11.1128  11.2018  11.5035
    13.1816  13.3280  13.7596  13.7596  14.2606  14.2606  14.6964  14.8169
    15.1884  15.1884  15.3299  15.9995  16.4134  16.4134  16.4769  16.4908
    16.6628  16.7354  16.7354  17.0142  17.1019  17.1019  17.3992  17.4558
    17.6938  18.1547  18.2920  18.4573  18.5245  18.5245  19.2326  19.2327

          k = 0.2309 0.4082 0.0000 ( 13041 PWs)   bands (ev):

  -106.8075-106.8075 -62.0191 -62.0188 -62.0187 -62.0187 -55.1172 -55.1169
   -55.1168 -55.1162 -55.1162 -55.1157 -33.3482 -33.3422 -33.3395 -33.3395
   -33.2698 -33.2696 -33.2694 -33.2689 -33.2685 -33.2670 -33.2668 -33.2662
    -5.7890  -5.3271  -4.8041  -4.7073  -4.6823  -4.6255  -4.5582  -4.5464
     1.0661   1.1023   1.2647   1.2840   1.3010   1.3126   1.3875   1.3917
     1.4582   1.4588   2.3354   2.6013   3.5103   3.5873   3.8638   4.2198
     4.2327   4.3749   4.8228   4.9084   5.0286   5.2749   5.4221   5.4989
     5.6574   5.6931   5.7615   6.0295   6.1482   6.3641   6.4948   6.5472
     7.1471   7.2213   8.7251   9.1228   9.2160   9.2932   9.4892   9.6380
     9.6754   9.7698   9.7807   9.8356   9.8394   9.9702  10.1139  10.4670
    10.6429  10.6530  10.7579  10.8704  10.9774  11.1833  11.2116  11.3413
    12.8661  13.0171  13.0558  13.5589  13.8180  14.2855  14.4724  14.5871
    14.7911  14.9594  15.1854  15.7366  15.8342  16.3511  16.5315  16.6967
    16.7357  16.8456  17.1522  17.4273  17.4279  17.6003  17.7959  18.0044
    18.2621  18.5050  18.6241  18.7003  18.9236  19.2233  19.5133  19.6743

          k = 0.0000 0.4899 0.0000 ( 13067 PWs)   bands (ev):

  -106.8075-106.8075 -62.0191 -62.0188 -62.0187 -62.0187 -55.1176 -55.1176
   -55.1171 -55.1165 -55.1165 -55.1162 -33.3484 -33.3419 -33.3396 -33.3396
   -33.2699 -33.2696 -33.2696 -33.2686 -33.2686 -33.2671 -33.2671 -33.2660
    -5.7911  -5.3496  -4.7868  -4.6675  -4.6675  -4.5977  -4.5867  -4.5867
     1.0533   1.1206   1.2819   1.2819   1.3054   1.3054   1.3934   1.3934
     1.4595   1.4595   2.2816   2.5551   3.5067   3.5067   4.0889   4.0889
     4.1273   4.6071   4.8772   4.8772   4.9093   5.2816   5.2816   5.4999
     5.6282   5.6282   5.6566   6.0761   6.0761   6.5157   6.6711   6.6711
     7.3735   7.3735   8.6243   8.9688   9.1688   9.1688   9.5634   9.5634
     9.5647   9.8159   9.8159   9.8290   9.8307   9.8307  10.2682  10.6706
    10.6706  10.7436  10.7436  10.9392  10.9817  11.0896  11.1824  11.1824
    12.8240  12.8240  13.0149  13.4240  13.8927  14.0771  14.0771  14.4237
    14.8724  14.8724  15.5048  15.5048  15.7033  16.7917  16.7917  16.8973
    16.8973  17.2414  17.4240  17.4240  17.5798  17.8094  17.9985  17.9986
    18.3611  18.4344  18.4344  18.6445  18.6445  19.4881  19.4881  19.5494

          k = 0.9238 0.1633 0.0000 ( 13046 PWs)   bands (ev):

  -106.8075-106.8075 -62.0190 -62.0189 -62.0187 -62.0187 -55.1175 -55.1173
   -55.1165 -55.1164 -55.1161 -55.1157 -33.3473 -33.3430 -33.3395 -33.3395
   -33.2699 -33.2696 -33.2693 -33.2684 -33.2681 -33.2675 -33.2672 -33.2662
    -5.7030  -5.4072  -4.8599  -4.6880  -4.6708  -4.6039  -4.5673  -4.5635
     1.0280   1.0974   1.2527   1.2613   1.3017   1.3277   1.4030   1.4034
     1.4502   1.4512   2.5712   2.6674   3.6601   3.7899   3.9634   4.1392
     4.3252   4.4319   4.6002   4.7879   4.9051   5.0043   5.2273   5.5473
     5.6138   5.6636   5.6730   5.9290   6.0563   6.4206   6.5504   6.7117
     6.8129   7.2364   8.9385   9.1015   9.2489   9.3774   9.6063   9.6197
     9.6991   9.7339   9.7780   9.8332   9.9351   9.9358  10.2327  10.3856
    10.5761  10.5964  10.6829  10.6902  10.8305  11.1049  11.3195  11.4364
    13.1170  13.4577  13.6458  13.8005  14.0207  14.3268  14.3282  14.5531
    14.8940  15.1039  15.4118  15.4442  15.7976  16.3640  16.5527  16.6254
    16.6343  16.9427  17.0942  17.5181  17.5753  17.6258  17.6355  17.8672
    18.0444  18.1890  18.1934  18.4541  18.8307  18.9091  19.1475  19.1766

          k = 0.6928 0.2449 0.0000 ( 13050 PWs)   bands (ev):

  -106.8075-106.8075 -62.0190 -62.0189 -62.0187 -62.0187 -55.1180 -55.1170
   -55.1167 -55.1161 -55.1161 -55.1159 -33.3457 -33.3446 -33.3395 -33.3395
   -33.2698 -33.2696 -33.2690 -33.2686 -33.2680 -33.2675 -33.2672 -33.2667
    -5.5777  -5.5074  -4.8600  -4.7262  -4.7252  -4.6216  -4.5408  -4.5291
     1.0264   1.0617   1.2340   1.2618   1.2957   1.3277   1.4213   1.4228
     1.4311   1.4352   2.8190   2.8360   3.7229   3.9093   4.0231   4.1492
     4.3610   4.5249   4.6371   4.6985   4.7171   4.9560   5.0829   5.3208
     5.3576   5.5871   5.8060   5.9455   6.1059   6.3172   6.5540   6.5970
     6.7238   6.9223   9.0677   9.0707   9.4035   9.6316   9.6547   9.6620
     9.6731   9.7035   9.8146   9.9039   9.9939  10.0480  10.0779  10.0990
    10.3276  10.4199  10.6962  10.8428  10.8980  11.0751  11.4265  11.6367
    13.3856  13.7000  14.0616  14.1813  14.5936  14.6018  14.6808  14.7688
    15.0755  15.2125  15.5125  15.6703  15.8141  16.0255  16.0345  16.1407
    16.2607  16.6519  16.9677  17.2916  17.3215  17.3525  17.5352  17.6962
    17.7410  17.9431  17.9804  18.5761  18.6364  18.6412  18.9064  18.9674

          k = 0.0000 0.0000 0.8000 ( 13050 PWs)   bands (ev):

  -106.8075-106.8075 -62.0190 -62.0189 -62.0187 -62.0187 -55.1180 -55.1170
   -55.1167 -55.1161 -55.1161 -55.1159 -33.3457 -33.3446 -33.3395 -33.3395
   -33.2698 -33.2696 -33.2690 -33.2686 -33.2680 -33.2675 -33.2672 -33.2667
    -5.5777  -5.5074  -4.8600  -4.7262  -4.7252  -4.6216  -4.5408  -4.5291
     1.0264   1.0617   1.2340   1.2618   1.2957   1.3277   1.4213   1.4228
     1.4311   1.4352   2.8190   2.8360   3.7229   3.9093   4.0231   4.1492
     4.3610   4.5249   4.6371   4.6985   4.7171   4.9560   5.0829   5.3208
     5.3576   5.5871   5.8060   5.9455   6.1059   6.3172   6.5540   6.5970
     6.7238   6.9223   9.0677   9.0707   9.4035   9.6316   9.6547   9.6620
     9.6731   9.7035   9.8146   9.9039   9.9939  10.0480  10.0779  10.0990
    10.3276  10.4199  10.6962  10.8428  10.8980  11.0751  11.4265  11.6367
    13.3856  13.7000  14.0616  14.1813  14.5936  14.6018  14.6808  14.7688
    15.0755  15.2125  15.5125  15.6703  15.8141  16.0255  16.0345  16.1407
    16.2607  16.6519  16.9677  17.2916  17.3215  17.3525  17.5352  17.6962
    17.7410  17.9431  17.9804  18.5761  18.6364  18.6412  18.9064  18.9674

          k =-0.2309 0.0816 0.8000 ( 13044 PWs)   bands (ev):

  -106.8075-106.8075 -62.0190 -62.0189 -62.0187 -62.0187 -55.1178 -55.1175
   -55.1166 -55.1163 -55.1156 -55.1156 -33.3466 -33.3438 -33.3395 -33.3395
   -33.2698 -33.2697 -33.2690 -33.2687 -33.2679 -33.2677 -33.2670 -33.2666
    -5.6503  -5.4382  -4.8605  -4.7843  -4.6255  -4.6009  -4.5752  -4.5438
     1.0309   1.0656   1.2535   1.2813   1.2915   1.3067   1.4097   1.4132
     1.4422   1.4450   2.6893   2.8000   3.7663   3.8347   4.0156   4.0859
     4.3328   4.4580   4.5920   4.6758   4.7547   4.9261   5.3994   5.4448
     5.5380   5.6622   5.7673   5.8299   6.1705   6.2862   6.5260   6.5489
     6.7311   7.0000   9.0319   9.2003   9.4194   9.4486   9.5108   9.6621
     9.7301   9.8033   9.8173   9.8585   9.9624  10.0264  10.0895  10.2606
    10.3767  10.4316  10.6725  10.7385  10.8800  11.0020  11.5435  11.5561
    13.3510  13.5341  13.9069  13.9810  14.3714  14.5664  14.6988  14.7887
    15.0569  15.0679  15.3188  15.5420  15.6867  16.1004  16.2504  16.3114
    16.3425  16.5457  16.8269  17.3076  17.3989  17.6197  17.6313  17.7268
    17.9878  18.1176  18.3536  18.4831  18.7237  18.7521  19.2334  19.2968

          k =-0.4619 0.1633 0.8000 ( 13046 PWs)   bands (ev):

  -106.8075-106.8075 -62.0190 -62.0189 -62.0187 -62.0187 -55.1175 -55.1173
   -55.1165 -55.1164 -55.1161 -55.1157 -33.3473 -33.3430 -33.3395 -33.3395
   -33.2699 -33.2696 -33.2693 -33.2684 -33.2681 -33.2675 -33.2672 -33.2662
    -5.7030  -5.4072  -4.8599  -4.6880  -4.6708  -4.6039  -4.5673  -4.5635
     1.0280   1.0974   1.2527   1.2613   1.3017   1.3277   1.4030   1.4034
     1.4502   1.4512   2.5712   2.6674   3.6601   3.7899   3.9634   4.1392
     4.3252   4.4319   4.6002   4.7879   4.9051   5.0043   5.2273   5.5473
     5.6138   5.6636   5.6730   5.9290   6.0563   6.4206   6.5504   6.7117
     6.8129   7.2364   8.9385   9.1015   9.2489   9.3774   9.6063   9.6197
     9.6991   9.7339   9.7780   9.8332   9.9351   9.9358  10.2327  10.3856
    10.5761  10.5964  10.6829  10.6902  10.8305  11.1049  11.3195  11.4364
    13.1170  13.4578  13.6457  13.8005  14.0207  14.3268  14.3282  14.5531
    14.8940  15.1039  15.4118  15.4442  15.7976  16.3640  16.5527  16.6254
    16.6344  16.9427  17.0942  17.5181  17.5753  17.6258  17.6355  17.8672
    18.0444  18.1890  18.1934  18.4541  18.8307  18.9091  19.1475  19.1766

     the Fermi energy is     8.0050 ev

!    total energy              =   -1502.15019505 Ry
     estimated scf accuracy    <          1.0E-09 Ry
     smearing contrib. (-TS)   =       0.22146356 Ry
     internal energy E=F+TS    =   -1502.37165861 Ry

     The total energy is F=E-TS. E is the sum of the following terms:
     one-electron contribution =    -907.51702905 Ry
     hartree contribution      =     489.28650535 Ry
     xc contribution           =    -219.20381056 Ry
     ewald contribution        =    -864.93732435 Ry

     total magnetization       =    10.40 Bohr mag/cell
     absolute magnetization    =    13.64 Bohr mag/cell

     convergence has been achieved in  11 iterations

     Forces acting on atoms (cartesian axes, Ry/au):

     atom    1 type  1   force =     0.00000000    0.00000000    0.00000000
     atom    2 type  1   force =     0.00000000    0.00000000    0.00000000
     atom    3 type  1   force =     0.00000000    0.00000000    0.00000000
     atom    4 type  1   force =     0.00000000    0.00000000    0.00000000
     atom    5 type  2   force =    -0.00000319    0.00000091    0.00000000
     atom    6 type  2   force =     0.00000319   -0.00000091    0.00000000
     atom    7 type  3   force =     0.00000038    0.00000066    0.00000052
     atom    8 type  3   force =    -0.00000041    0.00000067    0.00000000
     atom    9 type  3   force =    -0.00000038   -0.00000066   -0.00000052
     atom   10 type  3   force =     0.00000038    0.00000066   -0.00000052
     atom   11 type  3   force =     0.00000011   -0.00000081    0.00000000
     atom   12 type  3   force =    -0.00000038   -0.00000066    0.00000052
     atom   13 type  3   force =    -0.00000011    0.00000081    0.00000000
     atom   14 type  3   force =     0.00000041   -0.00000067    0.00000000

     Total force =     0.000005     Total SCF correction =     0.000023
     SCF correction compared to forces is large: reduce conv_thr to get better values
     Energy error            =      3.8E-06
     Gradient error          =      3.2E-06

     bfgs converged in   5 scf cycles and   4 bfgs steps
     (criteria: energy <  1.4E-04 Ry, force <  1.0E-04 Ry/Bohr)

     End of BFGS Geometry Optimization

     Final energy   =   -1502.1501950522 Ry

     File /home/hafidz/Documents/PKL/Kalkulasi-DFT/Project-Shift-Current-Multi-Weyl-Semimetal/Cr2HgSe4/Primitive-2/outdir/Cr2HgSe4-SC-Project-2.bfgs deleted, as requested
Begin final coordinates

ATOMIC_POSITIONS (crystal)
Cr            0.8750000000        0.3750000000        0.3750000000
Cr            0.3750000000        0.3750000000        0.8750000000
Cr            0.3750000000        0.3750000000        0.3750000000
Cr            0.3750000000        0.8750000000        0.3750000000
Hg            0.0000005093        0.0000005093       -0.0000015105
Hg            0.7499994907        0.7499994907        0.7500015105
Se            0.5730511449        0.1423162236        0.1423165298
Se            0.1423165062        0.1423165062        0.5730506013
Se            0.1769488551        0.6076837764        0.6076834702
Se            0.1423162236        0.5730511449        0.1423165298
Se            0.1423161545        0.1423161545        0.1423164414
Se            0.6076837764        0.1769488551        0.6076834702
Se            0.6076838455        0.6076838455        0.6076835586
Se            0.6076834938        0.6076834938        0.1769493987
End final coordinates



     Writing output data file /home/hafidz/Documents/PKL/Kalkulasi-DFT/Project-Shift-Current-Multi-Weyl-Semimetal/Cr2HgSe4/Primitive-2/outdir/Cr2HgSe4-SC-Project-2.save/

     init_run     :     77.36s CPU     78.93s WALL (       1 calls)
     electrons    :  15739.50s CPU  20786.74s WALL (       5 calls)
     update_pot   :     30.36s CPU     30.42s WALL (       4 calls)
     forces       :    191.51s CPU    192.66s WALL (       5 calls)

     Called by init_run:
     wfcinit      :     67.25s CPU     68.51s WALL (       1 calls)
     potinit      :      2.53s CPU      2.60s WALL (       1 calls)
     hinit0       :      6.85s CPU      6.88s WALL (       1 calls)

     Called by electrons:
     c_bands      :  14041.12s CPU  19024.37s WALL (      61 calls)
     sum_band     :   1637.63s CPU   1690.70s WALL (      61 calls)
     v_of_rho     :     26.57s CPU     27.16s WALL (      62 calls)
     newd         :     33.87s CPU     45.09s WALL (      62 calls)
     mix_rho      :      2.85s CPU      2.93s WALL (      61 calls)

     Called by c_bands:
     init_us_2    :     43.71s CPU     43.91s WALL (    9984 calls)
     cegterg      :  13822.46s CPU  18805.29s WALL (    4758 calls)

     Called by *egterg:
     cdiaghg      :    706.92s CPU    712.70s WALL (   15103 calls)
     h_psi        :   6648.46s CPU  11616.33s WALL (   15805 calls)
     s_psi        :   1066.97s CPU   1067.94s WALL (   15805 calls)
     g_psi        :     26.87s CPU     26.95s WALL (   10969 calls)

     Called by h_psi:
     h_psi:calbec :   1092.07s CPU   1095.87s WALL (   15805 calls)
     vloc_psi     :   4467.17s CPU   9430.02s WALL (   15805 calls)
     add_vuspsi   :   1070.55s CPU   1071.74s WALL (   15805 calls)

     General routines
     calbec       :   1716.27s CPU   1721.80s WALL (   22123 calls)
     fft          :     13.73s CPU     14.58s WALL (    1627 calls)
     ffts         :      0.75s CPU      0.79s WALL (     246 calls)
     fftw         :   4611.31s CPU   9580.68s WALL ( 3152636 calls)
     interpolate  :      1.79s CPU      1.86s WALL (     124 calls)

     Parallel routines
     fft_scatt_xy :    879.80s CPU    912.96s WALL ( 3154509 calls)
     fft_scatt_yz :    875.05s CPU    916.70s WALL ( 3154509 calls)

     PWSCF        :      4h27m CPU      5h51m WALL


   This run was terminated on:  20: 5:26   7Jul2024            

=------------------------------------------------------------------------------=
   JOB DONE.
=------------------------------------------------------------------------------=
