
     Program PWSCF v.6.7MaX starts on  7Jul2024 at 23:56:37 

     This program is part of the open-source Quantum ESPRESSO suite
     for quantum simulation of materials; please cite
         "P. Giannozzi et al., J. Phys.:Condens. Matter 21 395502 (2009);
         "P. Giannozzi et al., J. Phys.:Condens. Matter 29 465901 (2017);
          URL http://www.quantum-espresso.org", 
     in publications or presentations arising from this work. More details at
     http://www.quantum-espresso.org/quote

     Parallel version (MPI), running on     4 processors

     MPI processes distributed on     1 nodes
     R & G space division:  proc/nbgrp/npool/nimage =       4
     Waiting for input...
     Reading input from standard input

     Current dimensions of program PWSCF are:
     Max number of different atomic species (ntypx) = 10
     Max number of k-points (npk) =  40000
     Max angular momentum in pseudopotentials (lmaxx) =  3

     Atomic positions and unit cell read from directory:
     /home/hafidz/Documents/PKL/Kalkulasi-DFT/Project-Shift-Current-Multi-Weyl-Semimetal/Cr2HgSe4/Primitive-2/outdir/Cr2HgSe4-SC-Project-2.save/
     Atomic positions from file used, from input discarded

     file Cr.pbe-spn-rrkjus_psl.1.0.0.UPF: wavefunction(s)  3P renormalized
     file Hg.pbe-spn-rrkjus_psl.1.0.0.UPF: wavefunction(s)  5P renormalized

     Subspace diagonalization in iterative solution of the eigenvalue problem:
     one sub-group per band group will be used
     scalapack distributed-memory algorithm (size of sub-group:  2*  2 procs)

     Message from routine setup:
     using ibrav=0 with symmetry is DISCOURAGED, use correct ibrav instead

     Parallelization info
     --------------------
     sticks:   dense  smooth     PW     G-vecs:    dense   smooth      PW
     Min        1171     729    211                52939    26143    4088
     Max        1174     730    212                52940    26146    4091
     Sum        4687    2917    847               211759   104579   16361



     bravais-lattice index     =            0
     lattice parameter (alat)  =      14.5738  a.u.
     unit-cell volume          =    2188.7812 (a.u.)^3
     number of atoms/cell      =           14
     number of atomic types    =            3
     number of electrons       =       144.00
     number of Kohn-Sham states=          120
     kinetic-energy cutoff     =      50.0000  Ry
     charge density cutoff     =     320.0000  Ry
     Exchange-correlation= PBE
                           (   1   4   3   4   0   0   0)

     celldm(1)=  14.573788  celldm(2)=   0.000000  celldm(3)=   0.000000
     celldm(4)=   0.000000  celldm(5)=   0.000000  celldm(6)=   0.000000

     crystal axes: (cart. coord. in units of alat)
               a(1) = (   0.288675   0.816497   0.500000 )  
               a(2) = (   0.288675   0.816497  -0.500000 )  
               a(3) = (  -0.577350   0.816497   0.000000 )  

     reciprocal axes: (cart. coord. in units 2 pi/alat)
               b(1) = (  0.577350  0.408248  1.000000 )  
               b(2) = (  0.577350  0.408248 -1.000000 )  
               b(3) = ( -1.154701  0.408248  0.000000 )  


     PseudoPot. # 1 for Cr read from file:
     /home/hafidz/Documents/DFT/Pseudopotential/rrkjus/Cr.pbe-spn-rrkjus_psl.1.0.0.UPF
     MD5 check sum: ac5cc0a679be6eadbc07e1887cd97696
     Pseudo is Ultrasoft + core correction, Zval = 14.0
     Generated using "atomic" code by A. Dal Corso  v.5.1.2
     Using radial grid of 1183 points,  6 beta functions with: 
                l(1) =   0
                l(2) =   0
                l(3) =   1
                l(4) =   1
                l(5) =   2
                l(6) =   2
     Q(r) pseudized with 0 coefficients 


     PseudoPot. # 2 for Hg read from file:
     /home/hafidz/Documents/DFT/Pseudopotential/rrkjus/Hg.pbe-spn-rrkjus_psl.1.0.0.UPF
     MD5 check sum: 65689333edf7621de08780c51a426de3
     Pseudo is Ultrasoft + core correction, Zval = 20.0
     Generated using "atomic" code by A. Dal Corso  v.5.1.2
     Using radial grid of 1279 points,  6 beta functions with: 
                l(1) =   0
                l(2) =   0
                l(3) =   1
                l(4) =   1
                l(5) =   2
                l(6) =   2
     Q(r) pseudized with 0 coefficients 


     PseudoPot. # 3 for Se read from file:
     /home/hafidz/Documents/DFT/Pseudopotential/rrkjus/Se.pbe-n-rrkjus_psl.1.0.0.UPF
     MD5 check sum: 5f5e5c15c95449acb3b45b44a6529d2d
     Pseudo is Ultrasoft + core correction, Zval =  6.0
     Generated using "atomic" code by A. Dal Corso  v.5.1.2
     Using radial grid of 1211 points,  4 beta functions with: 
                l(1) =   0
                l(2) =   0
                l(3) =   1
                l(4) =   1
     Q(r) pseudized with 0 coefficients 


     atomic species   valence    mass     pseudopotential
        Cr            14.00    51.99610     Cr( 1.00)
        Hg            20.00   200.59200     Hg( 1.00)
        Se             6.00    78.97100     Se( 1.00)

     Starting magnetic structure 
     atomic species   magnetization
        Cr           0.100
        Hg           0.000
        Se           0.000

      4 Sym. Ops., with inversion, found ( 2 have fractional translation)



   Cartesian axes

     site n.     atom                  positions (alat units)
         1           Cr  tau(   1) = (   0.1443375   1.3268070   0.2500000  )
         2           Cr  tau(   2) = (  -0.2886752   1.3268070   0.0000000  )
         3           Cr  tau(   3) = (  -0.0000000   0.9185587   0.0000000  )
         4           Cr  tau(   4) = (   0.1443375   1.3268070  -0.2500000  )
         5           Hg  tau(   5) = (   0.0000012  -0.0000004   0.0000000  )
         6           Hg  tau(   6) = (  -0.0000013   1.8371178   0.0000000  )
         7           Se  tau(   7) = (   0.1243423   0.7002960   0.2153674  )
         8           Se  tau(   8) = (  -0.2486845   0.7002958   0.0000000  )
         9           Se  tau(   9) = (  -0.1243423   1.1368214  -0.2153674  )
        10           Se  tau(  10) = (   0.1243423   0.7002960  -0.2153674  )
        11           Se  tau(  11) = (  -0.0000002   0.3486022   0.0000000  )
        12           Se  tau(  12) = (  -0.1243423   1.1368214   0.2153674  )
        13           Se  tau(  13) = (   0.0000001   1.4885152   0.0000000  )
        14           Se  tau(  14) = (   0.2486844   1.1368216   0.0000000  )

     number of k points=    10  Marzari-Vanderbilt smearing, width (Ry)=  0.1000
                       cart. coord. in units 2pi/alat
        k(    1) = (   0.0000000   0.0000000   0.0000000), wk =   0.1000000
        k(    2) = (   0.5773503   0.4082483  -1.0000001), wk =   0.1000000
        k(    3) = (   0.8660254   0.6123725  -0.5000000), wk =   0.1000000
        k(    4) = (   0.8660254   0.6123725   0.0000000), wk =   0.1000000
        k(    5) = (   0.0000000   0.0000000   0.0000000), wk =   0.1000000
        k(    6) = (   0.0000000   0.6123724   0.0000000), wk =   0.1000000
        k(    7) = (  -0.2165063   0.6123724   0.3750000), wk =   0.1000000
        k(    8) = (   0.8660254   0.6123725  -0.5000000), wk =   0.1000000
        k(    9) = (   0.0000000   0.6123724   0.0000000), wk =   0.1000000
        k(   10) = (   0.8660254   0.6123725   0.0000000), wk =   0.1000000

     Dense  grid:   211759 G-vectors     FFT dimensions: (  96,  96,  96)

     Smooth grid:   104579 G-vectors     FFT dimensions: (  72,  72,  72)

     Estimated max dynamical RAM per process >     210.36 MB

     Estimated total dynamical RAM >     841.44 MB

     Check: negative core charge=   -0.000002
     Generating pointlists ...
     new r_m :   0.1365 (alat units)  1.9892 (a.u.) for type    1
     new r_m :   0.1438 (alat units)  2.0957 (a.u.) for type    2
     new r_m :   0.1365 (alat units)  1.9892 (a.u.) for type    3

     The potential is recalculated from file :
     /home/hafidz/Documents/PKL/Kalkulasi-DFT/Project-Shift-Current-Multi-Weyl-Semimetal/Cr2HgSe4/Primitive-2/outdir/Cr2HgSe4-SC-Project-2.save/charge-density

     Starting wfcs are   92 randomized atomic wfcs +   28 random wfcs

     Band Structure Calculation
     Davidson diagonalization with overlap

     ethr =  1.94E-10,  avg # of iterations = 58.7

     total cpu time spent up to now is      818.6 secs

     End of band structure calculation

 ------ SPIN UP ------------


          k = 0.0000 0.0000 0.0000 ( 13107 PWs)   bands (ev):

  -106.7957-106.7957 -64.8841 -64.8838 -64.8836 -64.8823 -55.1049 -55.1047
   -55.1047 -55.1047 -55.1046 -55.1045 -36.2853 -36.2785 -36.2784 -36.2778
   -36.2739 -36.2739 -36.2724 -36.2724 -36.2723 -36.2714 -36.2706 -36.2705
    -5.9302  -5.0075  -4.4922  -4.4922  -4.4921  -4.4506  -4.4506  -4.4505
     1.2853   1.2853   1.2853   1.3531   1.3531   1.3717   1.3717   1.3717
     1.3912   1.4786   1.4786   2.0693   2.7588   2.7589   2.7589   4.1329
     4.1329   4.4653   4.4653   5.1104   5.1106   5.1106   5.5757   5.5757
     5.5758   5.6707   5.6707   5.6707   6.0058   6.3494   6.3494   6.3494
     6.4002   6.4002   6.7617   6.7618   6.7624   6.8661   6.8665   6.8666
     6.9718   6.9721   6.9722   7.9010   7.9010   7.9010   8.5307   9.2703
     9.6335   9.6337   9.6338  10.0354  10.0356  10.0357  10.1280  10.1280
    11.5850  11.5850  11.5851  12.6210  12.6211  12.6211  12.6647  14.3832
    14.3833  14.3833  14.9115  14.9115  15.8762  15.8762  15.8762  16.0760
    16.0760  16.0760  16.1602  16.1602  18.2304  18.2772  19.0406  19.0406
    19.0407  19.9390  19.9390  19.9391  20.1912  20.3478  20.3478  20.7455

          k = 0.5774 0.4082-1.0000 ( 13107 PWs)   bands (ev):

  -106.7957-106.7957 -64.8841 -64.8838 -64.8836 -64.8823 -55.1049 -55.1047
   -55.1047 -55.1047 -55.1046 -55.1045 -36.2853 -36.2785 -36.2784 -36.2778
   -36.2739 -36.2739 -36.2724 -36.2724 -36.2723 -36.2714 -36.2706 -36.2705
    -5.9302  -5.0075  -4.4922  -4.4922  -4.4921  -4.4506  -4.4506  -4.4505
     1.2853   1.2853   1.2853   1.3531   1.3531   1.3717   1.3717   1.3717
     1.3912   1.4786   1.4786   2.0693   2.7588   2.7589   2.7589   4.1329
     4.1329   4.4653   4.4653   5.1104   5.1106   5.1106   5.5757   5.5757
     5.5758   5.6707   5.6707   5.6707   6.0058   6.3494   6.3494   6.3494
     6.4002   6.4002   6.7617   6.7618   6.7624   6.8661   6.8665   6.8666
     6.9718   6.9721   6.9722   7.9010   7.9010   7.9010   8.5307   9.2703
     9.6335   9.6337   9.6338  10.0354  10.0356  10.0357  10.1280  10.1280
    11.5850  11.5850  11.5851  12.6210  12.6211  12.6211  12.6647  14.3832
    14.3833  14.3833  14.9115  14.9115  15.8762  15.8762  15.8762  16.0760
    16.0760  16.0760  16.1602  16.1602  18.2304  18.2772  19.0406  19.0406
    19.0407  19.9390  19.9390  19.9391  20.1912  20.3478  20.3478  20.7455

          k = 0.8660 0.6124-0.5000 ( 13070 PWs)   bands (ev):

  -106.7957-106.7957 -64.8840 -64.8839 -64.8836 -64.8823 -55.1051 -55.1049
   -55.1048 -55.1043 -55.1042 -55.1028 -36.2832 -36.2792 -36.2778 -36.2772
   -36.2739 -36.2733 -36.2733 -36.2732 -36.2730 -36.2719 -36.2711 -36.2706
    -5.6550  -5.2706  -4.6356  -4.5225  -4.5225  -4.4501  -4.4259  -4.4259
     1.0258   1.1070   1.2911   1.2912   1.2913   1.2914   1.3993   1.3993
     1.4582   1.4582   2.3391   2.5206   3.3640   3.3640   3.8822   3.8822
     4.0122   4.3700   4.3701   4.5091   4.7030   4.8636   4.9764   4.9764
     5.0187   5.0782   5.0785   5.8100   5.8100   6.0472   6.0476   6.5883
     6.6385   6.6737   6.6737   6.8639   6.8639   6.8662   6.9509   6.9510
     7.0809   7.1991   7.4582   7.4585   7.5439   7.5439   8.3956   9.1691
     9.1694   9.3689   9.3689   9.6572  10.0062  10.0064  10.3760  10.4974
    12.8185  12.8627  12.8628  13.3094  13.4806  13.4807  13.7652  13.7990
    14.7304  14.7305  15.2459  15.2459  15.4415  16.4869  16.7475  16.7476
    16.8155  16.8155  17.1950  17.1950  17.3661  17.3714  17.5110  17.5111
    17.8783  17.9268  17.9268  18.0189  18.0189  19.1607  19.1959  19.1959

          k = 0.8660 0.6124 0.0000 ( 13031 PWs)   bands (ev):

  -106.7957-106.7957 -64.8840 -64.8838 -64.8836 -64.8822 -55.1044 -55.1043
   -55.1037 -55.1034 -55.1031 -55.1031 -36.2841 -36.2789 -36.2780 -36.2773
   -36.2739 -36.2735 -36.2729 -36.2728 -36.2726 -36.2717 -36.2710 -36.2707
    -5.7861  -5.1183  -4.5571  -4.5570  -4.5418  -4.5241  -4.3889  -4.3889
     1.1154   1.1281   1.2819   1.2819   1.3089   1.3089   1.3686   1.3791
     1.4673   1.4680   2.0305   2.4070   3.1675   3.1676   3.2306   4.0350
     4.1857   4.3481   4.4331   4.6723   4.9659   4.9662   5.1590   5.2057
     5.2058   5.2838   5.6611   5.6612   5.7612   5.9426   6.2420   6.2422
     6.7267   6.7270   6.7826   6.8621   6.8623   6.8824   6.8831   6.9153
     7.0315   7.0418   7.1275   7.1278   7.8728   7.8729   8.2479   9.2566
     9.3724   9.3728   9.7061   9.7065   9.9945  10.0357  10.3699  10.5019
    12.1149  12.3675  12.3676  12.9780  13.4454  13.4455  13.5953  13.9971
    14.6680  14.6681  14.7462  15.4433  15.6407  15.6949  15.6949  16.2337
    16.4192  16.4751  16.4751  16.5706  17.6058  18.2462  18.2463  18.4173
    18.5693  18.7534  18.8578  18.8578  19.0718  19.1873  20.0112  20.0112

          k = 0.0000 0.0000 0.0000 ( 13107 PWs)   bands (ev):

  -106.7957-106.7957 -64.8841 -64.8838 -64.8836 -64.8823 -55.1049 -55.1047
   -55.1047 -55.1047 -55.1046 -55.1045 -36.2853 -36.2785 -36.2784 -36.2778
   -36.2739 -36.2739 -36.2724 -36.2724 -36.2723 -36.2714 -36.2706 -36.2705
    -5.9302  -5.0075  -4.4922  -4.4922  -4.4921  -4.4506  -4.4506  -4.4505
     1.2853   1.2853   1.2853   1.3531   1.3531   1.3717   1.3717   1.3717
     1.3912   1.4786   1.4786   2.0693   2.7588   2.7589   2.7589   4.1329
     4.1329   4.4653   4.4653   5.1104   5.1106   5.1106   5.5757   5.5757
     5.5758   5.6707   5.6707   5.6707   6.0058   6.3494   6.3494   6.3494
     6.4002   6.4002   6.7617   6.7618   6.7624   6.8661   6.8665   6.8666
     6.9718   6.9721   6.9722   7.9010   7.9010   7.9010   8.5307   9.2703
     9.6335   9.6337   9.6338  10.0354  10.0356  10.0357  10.1280  10.1280
    11.5850  11.5850  11.5851  12.6210  12.6211  12.6211  12.6647  14.3832
    14.3833  14.3833  14.9115  14.9115  15.8762  15.8762  15.8762  16.0760
    16.0760  16.0760  16.1602  16.1602  18.2304  18.2772  19.0406  19.0406
    19.0407  19.9390  19.9390  19.9391  20.1912  20.3478  20.3478  20.7455

          k = 0.0000 0.6124 0.0000 ( 13070 PWs)   bands (ev):

  -106.7957-106.7957 -64.8840 -64.8838 -64.8836 -64.8823 -55.1050 -55.1049
   -55.1048 -55.1042 -55.1042 -55.1029 -36.2833 -36.2789 -36.2779 -36.2772
   -36.2741 -36.2733 -36.2731 -36.2730 -36.2730 -36.2720 -36.2711 -36.2706
    -5.6550  -5.2705  -4.6357  -4.5225  -4.5225  -4.4501  -4.4259  -4.4259
     1.0258   1.1071   1.2911   1.2912   1.2914   1.2914   1.3993   1.3993
     1.4582   1.4582   2.3391   2.5206   3.3639   3.3640   3.8822   3.8823
     4.0121   4.3700   4.3701   4.5092   4.7030   4.8636   4.9765   4.9765
     5.0187   5.0781   5.0784   5.8100   5.8100   6.0471   6.0475   6.5882
     6.6387   6.6736   6.6736   6.8638   6.8639   6.8661   6.9511   6.9511
     7.0808   7.1991   7.4581   7.4585   7.5439   7.5439   8.3955   9.1691
     9.1693   9.3690   9.3690   9.6572  10.0061  10.0064  10.3759  10.4974
    12.8185  12.8627  12.8628  13.3094  13.4806  13.4807  13.7652  13.7991
    14.7304  14.7305  15.2459  15.2460  15.4416  16.4869  16.7475  16.7475
    16.8156  16.8156  17.1950  17.1950  17.3661  17.3714  17.5111  17.5111
    17.8783  17.9269  17.9269  18.0189  18.0190  19.1607  19.1959  19.1960

          k =-0.2165 0.6124 0.3750 ( 13052 PWs)   bands (ev):

  -106.7957-106.7957 -64.8840 -64.8839 -64.8836 -64.8823 -55.1053 -55.1045
   -55.1040 -55.1036 -55.1036 -55.1032 -36.2817 -36.2808 -36.2773 -36.2767
   -36.2742 -36.2736 -36.2733 -36.2729 -36.2726 -36.2722 -36.2714 -36.2708
    -5.4955  -5.3765  -4.7312  -4.5713  -4.5592  -4.4425  -4.3976  -4.3782
     1.0102   1.0627   1.2344   1.2755   1.2863   1.3324   1.4201   1.4205
     1.4357   1.4402   2.6999   2.7470   3.5088   3.6156   3.9497   3.9800
     4.0889   4.2371   4.3263   4.3851   4.4594   4.6263   4.8162   4.8937
     5.0744   5.1971   5.2790   5.5094   5.6246   5.9381   6.0988   6.1119
     6.1552   6.6585   6.8171   6.8230   6.8612   6.9468   7.0324   7.0985
     7.1641   7.2134   7.4704   7.4971   7.5489   7.6890   8.5313   8.6597
     8.9812   9.0492   9.2609   9.4563   9.6888   9.9617  11.0679  11.2800
    13.0360  13.6036  13.6091  13.9337  14.0511  14.1918  14.3382  14.4689
    14.5269  14.9054  15.1174  15.4406  15.4563  15.6099  15.6998  15.7881
    15.9192  16.2831  16.7579  17.0406  17.2059  17.2105  17.4344  17.4776
    17.6252  17.7375  17.7843  18.1133  18.4644  18.5649  18.6912  18.7833

          k = 0.8660 0.6124-0.5000 ( 13070 PWs)   bands (ev):

  -106.7957-106.7957 -64.8840 -64.8839 -64.8836 -64.8823 -55.1051 -55.1049
   -55.1048 -55.1043 -55.1042 -55.1028 -36.2832 -36.2792 -36.2778 -36.2772
   -36.2739 -36.2733 -36.2733 -36.2732 -36.2730 -36.2719 -36.2711 -36.2706
    -5.6550  -5.2706  -4.6356  -4.5225  -4.5225  -4.4501  -4.4259  -4.4259
     1.0258   1.1070   1.2911   1.2912   1.2913   1.2914   1.3993   1.3993
     1.4582   1.4582   2.3391   2.5206   3.3640   3.3640   3.8822   3.8822
     4.0122   4.3700   4.3701   4.5091   4.7030   4.8636   4.9764   4.9764
     5.0187   5.0782   5.0785   5.8100   5.8100   6.0472   6.0476   6.5883
     6.6385   6.6737   6.6737   6.8639   6.8639   6.8662   6.9509   6.9510
     7.0809   7.1991   7.4582   7.4585   7.5439   7.5439   8.3956   9.1691
     9.1694   9.3689   9.3689   9.6572  10.0062  10.0064  10.3760  10.4974
    12.8185  12.8627  12.8628  13.3094  13.4806  13.4807  13.7652  13.7990
    14.7304  14.7305  15.2459  15.2459  15.4415  16.4869  16.7475  16.7476
    16.8155  16.8155  17.1950  17.1950  17.3661  17.3714  17.5110  17.5111
    17.8783  17.9268  17.9268  18.0189  18.0189  19.1607  19.1959  19.1959

          k = 0.0000 0.6124 0.0000 ( 13070 PWs)   bands (ev):

  -106.7957-106.7957 -64.8840 -64.8838 -64.8836 -64.8823 -55.1050 -55.1049
   -55.1048 -55.1042 -55.1042 -55.1029 -36.2833 -36.2789 -36.2779 -36.2772
   -36.2741 -36.2733 -36.2731 -36.2730 -36.2730 -36.2720 -36.2711 -36.2706
    -5.6550  -5.2705  -4.6357  -4.5225  -4.5225  -4.4501  -4.4259  -4.4259
     1.0258   1.1071   1.2911   1.2912   1.2914   1.2914   1.3993   1.3993
     1.4582   1.4582   2.3391   2.5206   3.3639   3.3640   3.8822   3.8823
     4.0121   4.3700   4.3701   4.5092   4.7030   4.8636   4.9765   4.9765
     5.0187   5.0781   5.0784   5.8100   5.8100   6.0471   6.0475   6.5882
     6.6387   6.6736   6.6736   6.8638   6.8639   6.8661   6.9511   6.9511
     7.0808   7.1991   7.4581   7.4585   7.5439   7.5439   8.3955   9.1691
     9.1693   9.3690   9.3690   9.6572  10.0061  10.0064  10.3759  10.4974
    12.8185  12.8627  12.8628  13.3094  13.4806  13.4807  13.7652  13.7991
    14.7304  14.7305  15.2459  15.2460  15.4416  16.4869  16.7475  16.7475
    16.8156  16.8156  17.1950  17.1950  17.3661  17.3714  17.5111  17.5111
    17.8783  17.9269  17.9269  18.0189  18.0190  19.1607  19.1959  19.1960

          k = 0.8660 0.6124 0.0000 ( 13031 PWs)   bands (ev):

  -106.7957-106.7957 -64.8840 -64.8838 -64.8836 -64.8822 -55.1044 -55.1043
   -55.1037 -55.1034 -55.1031 -55.1031 -36.2841 -36.2789 -36.2780 -36.2773
   -36.2739 -36.2735 -36.2729 -36.2728 -36.2726 -36.2717 -36.2710 -36.2707
    -5.7861  -5.1183  -4.5571  -4.5570  -4.5418  -4.5241  -4.3889  -4.3889
     1.1154   1.1281   1.2819   1.2819   1.3089   1.3089   1.3686   1.3791
     1.4673   1.4680   2.0305   2.4070   3.1675   3.1676   3.2306   4.0350
     4.1857   4.3481   4.4331   4.6723   4.9659   4.9662   5.1590   5.2057
     5.2058   5.2838   5.6611   5.6612   5.7612   5.9426   6.2420   6.2422
     6.7267   6.7270   6.7826   6.8621   6.8623   6.8824   6.8831   6.9153
     7.0315   7.0418   7.1275   7.1278   7.8728   7.8729   8.2479   9.2566
     9.3724   9.3728   9.7061   9.7065   9.9945  10.0357  10.3699  10.5019
    12.1149  12.3675  12.3676  12.9780  13.4454  13.4455  13.5953  13.9971
    14.6680  14.6681  14.7462  15.4433  15.6407  15.6949  15.6949  16.2337
    16.4192  16.4751  16.4751  16.5706  17.6058  18.2462  18.2463  18.4173
    18.5693  18.7534  18.8578  18.8578  19.0718  19.1873  20.0112  20.0112

 ------ SPIN DOWN ----------


          k = 0.0000 0.0000 0.0000 ( 13107 PWs)   bands (ev):

  -106.8077-106.8077 -62.0196 -62.0193 -62.0190 -62.0177 -55.1177 -55.1176
   -55.1175 -55.1175 -55.1175 -55.1173 -33.3508 -33.3401 -33.3399 -33.3389
   -33.2702 -33.2701 -33.2699 -33.2693 -33.2692 -33.2664 -33.2657 -33.2656
    -6.0145  -5.1540  -4.6545  -4.6544  -4.6544  -4.5946  -4.5945  -4.5945
     1.2874   1.2874   1.2874   1.3488   1.3488   1.3604   1.3604   1.3604
     1.4775   1.4775   1.4939   2.0596   2.9926   2.9926   2.9927   4.1558
     4.1558   5.1685   5.1685   5.5235   5.5235   5.5235   5.8078   5.8079
     5.8080   6.2837   6.2838   6.2838   6.3412   6.3413   6.3413   7.3511
     7.7507   7.7507   7.7507   8.5413   8.8127   8.8127   9.3556   9.3557
     9.3562   9.7831   9.7833   9.7833   9.8510   9.8514   9.8515  10.3626
    11.0157  11.0160  11.0161  11.2357  11.2360  11.2361  11.4149  11.4149
    12.0127  12.0127  12.0129  12.8376  12.8376  12.8376  13.6297  14.6097
    14.6097  14.6097  15.5465  15.5465  16.1813  16.1813  16.1969  16.1969
    16.1969  16.6415  16.6415  16.6415  18.2767  18.7472  19.3446  19.3447
    19.3448  20.2820  20.2820  20.2821  20.2997  20.5239  20.5239  20.8776

          k = 0.5774 0.4082-1.0000 ( 13107 PWs)   bands (ev):

  -106.8077-106.8077 -62.0196 -62.0193 -62.0190 -62.0177 -55.1177 -55.1176
   -55.1175 -55.1175 -55.1175 -55.1173 -33.3508 -33.3401 -33.3399 -33.3389
   -33.2702 -33.2701 -33.2699 -33.2693 -33.2692 -33.2664 -33.2657 -33.2656
    -6.0145  -5.1540  -4.6545  -4.6544  -4.6544  -4.5946  -4.5945  -4.5945
     1.2874   1.2874   1.2874   1.3488   1.3488   1.3604   1.3604   1.3604
     1.4775   1.4775   1.4939   2.0596   2.9926   2.9926   2.9927   4.1558
     4.1558   5.1685   5.1685   5.5235   5.5235   5.5235   5.8078   5.8079
     5.8080   6.2837   6.2838   6.2838   6.3412   6.3413   6.3413   7.3511
     7.7507   7.7507   7.7507   8.5413   8.8127   8.8127   9.3556   9.3557
     9.3562   9.7831   9.7833   9.7833   9.8510   9.8514   9.8515  10.3626
    11.0157  11.0160  11.0161  11.2357  11.2360  11.2361  11.4149  11.4149
    12.0127  12.0127  12.0129  12.8376  12.8376  12.8376  13.6297  14.6097
    14.6097  14.6097  15.5465  15.5465  16.1813  16.1813  16.1969  16.1969
    16.1969  16.6415  16.6415  16.6415  18.2767  18.7472  19.3446  19.3447
    19.3448  20.2820  20.2820  20.2821  20.2997  20.5239  20.5239  20.8776

          k = 0.8660 0.6124-0.5000 ( 13070 PWs)   bands (ev):

  -106.8077-106.8077 -62.0195 -62.0194 -62.0190 -62.0177 -55.1179 -55.1178
   -55.1176 -55.1172 -55.1170 -55.1156 -33.3479 -33.3428 -33.3399 -33.3389
   -33.2701 -33.2698 -33.2692 -33.2689 -33.2689 -33.2677 -33.2667 -33.2657
    -5.7492  -5.3920  -4.7926  -4.6687  -4.6687  -4.6023  -4.5860  -4.5860
     1.0429   1.1053   1.2842   1.2842   1.2975   1.2976   1.3986   1.3986
     1.4561   1.4561   2.4077   2.5669   3.6185   3.6186   4.0206   4.0206
     4.3285   4.6711   4.8425   4.8494   4.8495   5.0225   5.2397   5.2397
     5.6219   5.6221   5.6449   6.0595   6.0595   6.5365   6.7435   6.7436
     7.3046   7.3047   8.7573   8.9321   9.1940   9.1943   9.5569   9.5801
     9.5807   9.8188   9.8188   9.8261   9.8413   9.8416  10.3016  10.6181
    10.6181  10.7121  10.7122  10.9106  10.9821  11.1341  11.1674  11.1676
    12.9773  12.9774  13.1925  13.7237  13.8309  14.0596  14.0596  14.2447
    14.9595  14.9596  15.5635  15.5635  15.9373  16.7753  16.9650  16.9651
    17.0530  17.0530  17.5286  17.6373  17.6373  17.7934  17.7934  17.8859
    18.1938  18.1938  18.2241  18.2310  18.2310  19.2024  19.3256  19.3257

          k = 0.8660 0.6124 0.0000 ( 13031 PWs)   bands (ev):

  -106.8077-106.8077 -62.0195 -62.0193 -62.0190 -62.0177 -55.1173 -55.1173
   -55.1164 -55.1161 -55.1160 -55.1159 -33.3492 -33.3413 -33.3401 -33.3390
   -33.2702 -33.2699 -33.2695 -33.2692 -33.2689 -33.2669 -33.2662 -33.2660
    -5.8758  -5.2508  -4.7082  -4.7081  -4.7009  -4.6719  -4.5438  -4.5437
     1.1282   1.1341   1.2767   1.2767   1.3131   1.3131   1.3686   1.3758
     1.4656   1.4664   2.1023   2.4417   3.3998   3.3999   3.4134   4.1875
     4.2638   4.7181   4.9947   5.0263   5.2920   5.2920   5.5652   5.5653
     5.5941   5.8377   6.0988   6.2600   6.2601   6.3750   6.3750   6.3782
     7.3258   7.3258   8.5291   9.0433   9.0716   9.1927   9.4112   9.6090
     9.6096   9.7840   9.7847   9.8511   9.8813   9.9464   9.9469  10.5583
    10.7329  10.7334  10.9563  11.0428  11.0434  11.1408  11.1851  11.2566
    12.5036  12.6591  12.6592  13.1989  13.6996  13.6996  14.2504  14.4494
    14.9578  14.9578  15.3219  15.9023  16.1207  16.1207  16.1324  16.3891
    16.5929  16.7490  16.7662  16.7663  17.9834  18.5364  18.5365  18.6754
    18.8397  18.8717  19.1109  19.1109  19.2180  19.4459  20.1159  20.1244

          k = 0.0000 0.0000 0.0000 ( 13107 PWs)   bands (ev):

  -106.8077-106.8077 -62.0196 -62.0193 -62.0190 -62.0177 -55.1177 -55.1176
   -55.1175 -55.1175 -55.1175 -55.1173 -33.3508 -33.3401 -33.3399 -33.3389
   -33.2702 -33.2701 -33.2699 -33.2693 -33.2692 -33.2664 -33.2657 -33.2656
    -6.0145  -5.1540  -4.6545  -4.6544  -4.6544  -4.5946  -4.5945  -4.5945
     1.2874   1.2874   1.2874   1.3488   1.3488   1.3604   1.3604   1.3604
     1.4775   1.4775   1.4939   2.0596   2.9926   2.9926   2.9927   4.1558
     4.1558   5.1685   5.1685   5.5235   5.5235   5.5235   5.8078   5.8079
     5.8080   6.2837   6.2838   6.2838   6.3412   6.3413   6.3413   7.3511
     7.7507   7.7507   7.7507   8.5413   8.8127   8.8127   9.3556   9.3557
     9.3562   9.7831   9.7833   9.7833   9.8510   9.8514   9.8515  10.3626
    11.0157  11.0160  11.0161  11.2357  11.2360  11.2361  11.4149  11.4149
    12.0127  12.0127  12.0129  12.8376  12.8376  12.8376  13.6297  14.6097
    14.6097  14.6097  15.5465  15.5465  16.1813  16.1813  16.1969  16.1969
    16.1969  16.6415  16.6415  16.6415  18.2767  18.7472  19.3446  19.3447
    19.3448  20.2820  20.2820  20.2821  20.2997  20.5239  20.5239  20.8776

          k = 0.0000 0.6124 0.0000 ( 13070 PWs)   bands (ev):

  -106.8077-106.8077 -62.0195 -62.0193 -62.0191 -62.0177 -55.1179 -55.1178
   -55.1176 -55.1171 -55.1171 -55.1155 -33.3480 -33.3425 -33.3401 -33.3389
   -33.2702 -33.2700 -33.2693 -33.2686 -33.2686 -33.2678 -33.2667 -33.2658
    -5.7493  -5.3920  -4.7926  -4.6687  -4.6687  -4.6023  -4.5860  -4.5860
     1.0429   1.1053   1.2842   1.2842   1.2975   1.2976   1.3986   1.3986
     1.4561   1.4561   2.4077   2.5669   3.6185   3.6186   4.0206   4.0206
     4.3285   4.6712   4.8425   4.8494   4.8495   5.0225   5.2397   5.2397
     5.6219   5.6221   5.6449   6.0595   6.0595   6.5365   6.7435   6.7436
     7.3047   7.3047   8.7574   8.9321   9.1939   9.1942   9.5569   9.5800
     9.5806   9.8191   9.8191   9.8260   9.8412   9.8415  10.3015  10.6183
    10.6183  10.7120  10.7121  10.9106  10.9820  11.1342  11.1674  11.1676
    12.9773  12.9774  13.1926  13.7235  13.8309  14.0595  14.0596  14.2446
    14.9595  14.9596  15.5635  15.5635  15.9374  16.7752  16.9650  16.9651
    17.0530  17.0530  17.5287  17.6373  17.6373  17.7934  17.7934  17.8859
    18.1938  18.1938  18.2241  18.2310  18.2310  19.2024  19.3257  19.3257

          k =-0.2165 0.6124 0.3750 ( 13052 PWs)   bands (ev):

  -106.8077-106.8077 -62.0194 -62.0194 -62.0190 -62.0177 -55.1179 -55.1174
   -55.1168 -55.1165 -55.1164 -55.1160 -33.3459 -33.3447 -33.3399 -33.3390
   -33.2701 -33.2696 -33.2694 -33.2686 -33.2684 -33.2677 -33.2668 -33.2663
    -5.5982  -5.4873  -4.8769  -4.7190  -4.7146  -4.5994  -4.5537  -4.5364
     1.0211   1.0694   1.2361   1.2728   1.2838   1.3293   1.4187   1.4191
     1.4345   1.4381   2.7918   2.8277   3.6956   3.8643   4.1025   4.2071
     4.3001   4.4412   4.6405   4.6645   4.7192   4.9358   5.1110   5.3833
     5.4544   5.7063   5.7659   5.9658   6.0417   6.3387   6.4802   6.5587
     6.7244   6.9916   9.0895   9.1014   9.3535   9.6228   9.6251   9.6625
     9.6884   9.6927   9.8241   9.9353   9.9968  10.0471  10.0955  10.1266
    10.3179  10.4472  10.6441  10.8077  10.8450  11.0750  11.4242  11.6546
    13.3456  13.8372  14.0189  14.1125  14.4492  14.6453  14.7378  14.7542
    15.0015  15.1172  15.4451  15.7029  15.8441  15.8482  16.0095  16.0914
    16.2305  16.6435  17.0612  17.3735  17.3957  17.4970  17.6347  17.6822
    17.8837  17.9038  18.0407  18.5174  18.7500  18.8519  18.8990  18.9821

          k = 0.8660 0.6124-0.5000 ( 13070 PWs)   bands (ev):

  -106.8077-106.8077 -62.0195 -62.0194 -62.0190 -62.0177 -55.1179 -55.1178
   -55.1176 -55.1172 -55.1170 -55.1156 -33.3479 -33.3428 -33.3399 -33.3389
   -33.2701 -33.2698 -33.2692 -33.2689 -33.2689 -33.2677 -33.2667 -33.2657
    -5.7492  -5.3920  -4.7926  -4.6687  -4.6687  -4.6023  -4.5860  -4.5860
     1.0429   1.1053   1.2842   1.2842   1.2975   1.2976   1.3986   1.3986
     1.4561   1.4561   2.4077   2.5669   3.6185   3.6186   4.0206   4.0206
     4.3285   4.6711   4.8425   4.8494   4.8495   5.0225   5.2397   5.2397
     5.6219   5.6221   5.6449   6.0595   6.0595   6.5365   6.7435   6.7436
     7.3046   7.3047   8.7573   8.9321   9.1940   9.1943   9.5569   9.5801
     9.5807   9.8188   9.8188   9.8261   9.8413   9.8416  10.3016  10.6181
    10.6181  10.7121  10.7122  10.9106  10.9821  11.1341  11.1674  11.1676
    12.9773  12.9774  13.1925  13.7237  13.8309  14.0596  14.0596  14.2447
    14.9595  14.9596  15.5635  15.5635  15.9373  16.7753  16.9650  16.9651
    17.0530  17.0530  17.5286  17.6373  17.6373  17.7934  17.7934  17.8859
    18.1938  18.1938  18.2241  18.2310  18.2310  19.2024  19.3256  19.3257

          k = 0.0000 0.6124 0.0000 ( 13070 PWs)   bands (ev):

  -106.8077-106.8077 -62.0195 -62.0193 -62.0191 -62.0177 -55.1179 -55.1178
   -55.1176 -55.1171 -55.1171 -55.1155 -33.3480 -33.3425 -33.3401 -33.3389
   -33.2702 -33.2700 -33.2693 -33.2686 -33.2686 -33.2678 -33.2667 -33.2658
    -5.7493  -5.3920  -4.7926  -4.6687  -4.6687  -4.6023  -4.5860  -4.5860
     1.0429   1.1053   1.2842   1.2842   1.2975   1.2976   1.3986   1.3986
     1.4561   1.4561   2.4077   2.5669   3.6185   3.6186   4.0206   4.0206
     4.3285   4.6712   4.8425   4.8494   4.8495   5.0225   5.2397   5.2397
     5.6219   5.6221   5.6449   6.0595   6.0595   6.5365   6.7435   6.7436
     7.3047   7.3047   8.7574   8.9321   9.1939   9.1942   9.5569   9.5800
     9.5806   9.8191   9.8191   9.8260   9.8412   9.8415  10.3015  10.6183
    10.6183  10.7120  10.7121  10.9106  10.9820  11.1342  11.1674  11.1676
    12.9773  12.9774  13.1926  13.7235  13.8309  14.0595  14.0596  14.2446
    14.9595  14.9596  15.5635  15.5635  15.9374  16.7752  16.9650  16.9651
    17.0530  17.0530  17.5287  17.6373  17.6373  17.7934  17.7934  17.8859
    18.1938  18.1938  18.2241  18.2310  18.2310  19.2024  19.3257  19.3257

          k = 0.8660 0.6124 0.0000 ( 13031 PWs)   bands (ev):

  -106.8077-106.8077 -62.0195 -62.0193 -62.0190 -62.0177 -55.1173 -55.1173
   -55.1164 -55.1161 -55.1160 -55.1159 -33.3492 -33.3413 -33.3401 -33.3390
   -33.2702 -33.2699 -33.2695 -33.2692 -33.2689 -33.2669 -33.2662 -33.2660
    -5.8758  -5.2508  -4.7082  -4.7081  -4.7009  -4.6719  -4.5438  -4.5437
     1.1282   1.1341   1.2767   1.2767   1.3131   1.3131   1.3686   1.3758
     1.4656   1.4664   2.1023   2.4417   3.3998   3.3999   3.4134   4.1875
     4.2638   4.7181   4.9947   5.0263   5.2920   5.2920   5.5652   5.5653
     5.5941   5.8377   6.0988   6.2600   6.2601   6.3750   6.3750   6.3782
     7.3258   7.3258   8.5291   9.0433   9.0716   9.1927   9.4112   9.6090
     9.6096   9.7840   9.7847   9.8511   9.8813   9.9464   9.9469  10.5583
    10.7329  10.7334  10.9563  11.0428  11.0434  11.1408  11.1851  11.2566
    12.5036  12.6591  12.6592  13.1989  13.6996  13.6996  14.2504  14.4494
    14.9578  14.9578  15.3219  15.9023  16.1207  16.1207  16.1324  16.3891
    16.5929  16.7490  16.7662  16.7663  17.9834  18.5364  18.5365  18.6754
    18.8397  18.8717  19.1109  19.1109  19.2180  19.4459  20.1159  20.1244

     Writing output data file /home/hafidz/Documents/PKL/Kalkulasi-DFT/Project-Shift-Current-Multi-Weyl-Semimetal/Cr2HgSe4/Primitive-2/outdir/Cr2HgSe4-SC-Project-2.save/

     init_run     :      7.90s CPU      8.21s WALL (       1 calls)
     electrons    :    799.54s CPU    808.84s WALL (       1 calls)

     Called by init_run:
     wfcinit      :      0.00s CPU      0.00s WALL (       1 calls)
     potinit      :      0.49s CPU      0.56s WALL (       1 calls)
     hinit0       :      6.72s CPU      6.76s WALL (       1 calls)

     Called by electrons:
     c_bands      :    799.54s CPU    808.83s WALL (       1 calls)
     v_of_rho     :      0.44s CPU      0.49s WALL (       1 calls)
     newd         :      0.54s CPU      0.74s WALL (       1 calls)

     Called by c_bands:
     init_us_2    :      0.08s CPU      0.09s WALL (      20 calls)
     cegterg      :    780.63s CPU    789.44s WALL (      69 calls)

     Called by *egterg:
     cdiaghg      :     60.19s CPU     60.61s WALL (    1194 calls)
     h_psi        :    307.29s CPU    315.40s WALL (    1263 calls)
     s_psi        :     50.79s CPU     50.82s WALL (    1263 calls)
     g_psi        :      1.86s CPU      1.86s WALL (    1174 calls)

     Called by h_psi:
     h_psi:calbec :     51.54s CPU     51.75s WALL (    1263 calls)
     vloc_psi     :    203.86s CPU    211.72s WALL (    1263 calls)
     add_vuspsi   :     51.05s CPU     51.09s WALL (    1263 calls)

     General routines
     calbec       :     51.53s CPU     51.74s WALL (    1263 calls)
     fft          :      0.27s CPU      0.29s WALL (      23 calls)
     ffts         :      0.01s CPU      0.01s WALL (       2 calls)
     fftw         :    172.66s CPU    179.35s WALL (  118958 calls)
     interpolate  :      0.03s CPU      0.03s WALL (       2 calls)
     davcio       :      0.04s CPU      0.17s WALL (      40 calls)

     Parallel routines
     fft_scatt_xy :     30.70s CPU     31.85s WALL (  118983 calls)
     fft_scatt_yz :     31.43s CPU     32.98s WALL (  118983 calls)

     PWSCF        :  13m29.23s CPU  13m39.55s WALL


   This run was terminated on:   0:10:17   8Jul2024            

=------------------------------------------------------------------------------=
   JOB DONE.
=------------------------------------------------------------------------------=
