
     Program BANDS v.6.7MaX starts on 16Jul2024 at  9: 2:30 

     This program is part of the open-source Quantum ESPRESSO suite
     for quantum simulation of materials; please cite
         "P. Giannozzi et al., J. Phys.:Condens. Matter 21 395502 (2009);
         "P. Giannozzi et al., J. Phys.:Condens. Matter 29 465901 (2017);
          URL http://www.quantum-espresso.org", 
     in publications or presentations arising from this work. More details at
     http://www.quantum-espresso.org/quote

     Parallel version (MPI), running on     4 processors

     MPI processes distributed on     1 nodes
     R & G space division:  proc/nbgrp/npool/nimage =       4

     Reading xml data from directory:

     /home/hafidz/Documents/PKL/Kalkulasi-DFT/Project-Shift-Current-Multi-Weyl-Semimetal/Cr2HgSe4/Primitive-2/outdir/Cr2HgSe4-SC-Project-2.save/
     file Cr.pbe-spn-rrkjus_psl.1.0.0.UPF: wavefunction(s)  3P renormalized
     file Hg.pbe-spn-rrkjus_psl.1.0.0.UPF: wavefunction(s)  5P renormalized

     IMPORTANT: XC functional enforced from input :
     Exchange-correlation= PBE
                           (   1   4   3   4   0   0   0)
     Any further DFT definition will be discarded
     Please, verify this is what you really want


     Parallelization info
     --------------------
     sticks:   dense  smooth     PW     G-vecs:    dense   smooth      PW
     Min        1171     729    211                52939    26143    4088
     Max        1174     730    212                52940    26146    4091
     Sum        4687    2917    847               211759   104579   16361


     Check: negative core charge=   -0.000002
     Reading collected, re-writing distributed wavefunctions
     high-symmetry point:  0.0000 0.0000 0.0000   x coordinate   0.0000
     high-symmetry point:  0.5774 0.4082-1.0000   x coordinate   1.2247
     high-symmetry point:  0.8660 0.6124-0.5000   x coordinate   1.8371
     high-symmetry point:  0.8660 0.6124 0.0000   x coordinate   2.3371
     high-symmetry point:  0.0000 0.0000 0.0000   x coordinate   3.3978
     high-symmetry point:  0.0000 0.6124 0.0000   x coordinate   4.0101
     high-symmetry point: -0.2165 0.6124 0.3750   x coordinate   4.4432
     high-symmetry point:  0.8660 0.6124-0.5000   x coordinate   5.8351
     high-symmetry point:  0.0000 0.6124 0.0000   x coordinate   6.8351
     high-symmetry point:  0.8660 0.6124 0.0000   x coordinate   7.7011

     Plottable bands (eV) written to file Cr2HgSe4_SC-Project-2.bands.out.dat.gnu
     Bands written to file Cr2HgSe4_SC-Project-2.bands.out.dat

 **************************************************************************

                    xk=(   0.00000,   0.00000,   0.00000  )

     point group C_2h (2/m) 
     there are  4 classes
     the character table:

       E     C2    i     s_h  
A_g    1.00  1.00  1.00  1.00
B_g    1.00 -1.00  1.00 -1.00
A_u    1.00  1.00 -1.00 -1.00
B_u    1.00 -1.00 -1.00  1.00

     the symmetry operations in each class and the name of the first element:

     E        1
                                                                 
     C2       2
                                                                 
     i        3
                                                                 
     s_h      4
                                                                 

     Band symmetry, C_2h (2/m)  point group:

     e(  1 -  2) =   -106.79569  eV     2   --> A_g            
     e(  1 -  2) =   -106.79569  eV     2   --> B_u            
     e(  3 -  3) =    -64.88407  eV     1   --> A_g            
     e(  4 -  4) =    -64.88382  eV     1   --> B_g            
     e(  5 -  5) =    -64.88356  eV     1   --> A_g            
     e(  6 -  6) =    -64.88226  eV     1   --> A_g            
     e(  7 -  7) =    -55.10489  eV     1   --> B_u            
     e(  8 - 10) =    -55.10474  eV     3   --> A_g            
     e(  8 - 10) =    -55.10474  eV     3   --> A_u            
     e(  8 - 10) =    -55.10474  eV     3   --> B_u            
     e( 11 - 12) =    -55.10456  eV     2   --> A_g            
     e( 11 - 12) =    -55.10456  eV     2   --> B_g            
     e( 13 - 13) =    -36.28535  eV     1   --> B_u            
     e( 14 - 14) =    -36.27853  eV     1   --> A_u            
     e( 15 - 15) =    -36.27841  eV     1   --> B_u            
     e( 16 - 16) =    -36.27782  eV     1   --> B_u            
     e( 17 - 18) =    -36.27388  eV     2   --> A_u            
     e( 17 - 18) =    -36.27388  eV     2   --> B_u            
     e( 19 - 21) =    -36.27241  eV     3   --> A_u            
     e( 19 - 21) =    -36.27241  eV     3   -->   2 B_u            
     e( 22 - 22) =    -36.27136  eV     1   --> A_u            
     e( 23 - 24) =    -36.27061  eV     2   --> A_u            
     e( 23 - 24) =    -36.27061  eV     2   --> B_u            
     e( 25 - 25) =     -5.93021  eV     1   --> A_g            
     e( 26 - 26) =     -5.00746  eV     1   --> B_u            
     e( 27 - 29) =     -4.49222  eV     3   --> A_u            
     e( 27 - 29) =     -4.49222  eV     3   -->   2 B_u            
     e( 30 - 32) =     -4.45061  eV     3   -->   2 A_g            
     e( 30 - 32) =     -4.45061  eV     3   --> B_g            
     e( 33 - 35) =      1.28528  eV     3   -->   2 A_g            
     e( 33 - 35) =      1.28528  eV     3   --> B_g            
     e( 36 - 37) =      1.35306  eV     2   --> A_u            
     e( 36 - 37) =      1.35306  eV     2   --> B_u            
     e( 38 - 40) =      1.37169  eV     3   --> A_u            
     e( 38 - 40) =      1.37169  eV     3   -->   2 B_u            
     e( 41 - 41) =      1.39122  eV     1   --> A_g            
     e( 42 - 43) =      1.47856  eV     2   --> A_g            
     e( 42 - 43) =      1.47856  eV     2   --> B_g            
     e( 44 - 44) =      2.06933  eV     1   --> B_u            
     e( 45 - 47) =      2.75883  eV     3   -->   2 A_g            
     e( 45 - 47) =      2.75883  eV     3   --> B_g            
     e( 48 - 49) =      4.13289  eV     2   --> A_u            
     e( 48 - 49) =      4.13289  eV     2   --> B_u            
     e( 50 - 51) =      4.46531  eV     2   --> A_g            
     e( 50 - 51) =      4.46531  eV     2   --> B_g            
     e( 52 - 52) =      5.11038  eV     1   --> B_g            
     e( 53 - 54) =      5.11060  eV     2   --> A_g            
     e( 53 - 54) =      5.11060  eV     2   --> B_g            
     e( 55 - 57) =      5.57573  eV     3   --> A_u            
     e( 55 - 57) =      5.57573  eV     3   -->   2 B_u            
     e( 58 - 60) =      5.67065  eV     3   -->   2 A_g            
     e( 58 - 60) =      5.67065  eV     3   --> B_g            
     e( 61 - 61) =      6.00579  eV     1   --> A_g            
     e( 62 - 64) =      6.34942  eV     3   -->   2 A_u            
     e( 62 - 64) =      6.34942  eV     3   --> B_u            
     e( 65 - 66) =      6.40019  eV     2   --> A_g            
     e( 65 - 66) =      6.40019  eV     2   --> B_g            
     e( 67 - 67) =      6.76171  eV     1   --> B_g            
     e( 68 - 68) =      6.76183  eV     1   --> A_g            
     e( 69 - 69) =      6.76239  eV     1   --> A_g            
     e( 70 - 70) =      6.86608  eV     1   --> B_g            
     e( 71 - 72) =      6.86651  eV     2   --> A_g            
     e( 71 - 72) =      6.86651  eV     2   --> B_g            
     e( 73 - 73) =      6.97175  eV     1   --> A_g            
     e( 74 - 75) =      6.97211  eV     2   --> A_g            
     e( 74 - 75) =      6.97211  eV     2   --> B_g            
     e( 76 - 78) =      7.90097  eV     3   --> A_u            
     e( 76 - 78) =      7.90097  eV     3   -->   2 B_u            
     e( 79 - 79) =      8.53067  eV     1   --> B_u            
     e( 80 - 80) =      9.27029  eV     1   --> A_g            
     e( 81 - 81) =      9.63351  eV     1   --> A_g            
     e( 82 - 83) =      9.63374  eV     2   --> A_g            
     e( 82 - 83) =      9.63374  eV     2   --> B_g            
     e( 84 - 84) =     10.03542  eV     1   --> B_g            
     e( 85 - 86) =     10.03563  eV     2   --> A_g            
     e( 85 - 86) =     10.03563  eV     2   --> B_g            
     e( 87 - 88) =     10.12796  eV     2   --> A_g            
     e( 87 - 88) =     10.12796  eV     2   --> B_g            
     e( 89 - 90) =     11.58497  eV     2   --> A_g            
     e( 89 - 90) =     11.58497  eV     2   --> B_g            
     e( 91 - 91) =     11.58510  eV     1   --> A_g            
     e( 92 - 94) =     12.62103  eV     3   --> A_u            
     e( 92 - 94) =     12.62103  eV     3   -->   2 B_u            
     e( 95 - 95) =     12.66473  eV     1   --> A_g            
     e( 96 - 98) =     14.38324  eV     3   --> A_u            
     e( 96 - 98) =     14.38324  eV     3   -->   2 B_u            
     e( 99 -100) =     14.91148  eV     2   --> A_g            
     e( 99 -100) =     14.91148  eV     2   --> B_g            
     e(101 -103) =     15.87621  eV     3   -->   2 A_u            
     e(101 -103) =     15.87621  eV     3   --> B_u            
     e(104 -106) =     16.07595  eV     3   -->   2 A_g            
     e(104 -106) =     16.07595  eV     3   --> B_g            
     e(107 -108) =     16.16020  eV     2   --> A_u            
     e(107 -108) =     16.16020  eV     2   --> B_u            
     e(109 -109) =     18.23044  eV     1   --> B_u            
     e(110 -110) =     18.27724  eV     1   --> A_g            
     e(111 -113) =     19.04060  eV     3   -->   2 A_g            
     e(111 -113) =     19.04060  eV     3   --> B_g            
     e(114 -115) =     19.93899  eV     2   --> A_u            
     e(114 -115) =     19.93899  eV     2   --> B_u            
     e(116 -116) =     19.93914  eV     1   --> B_u            
     e(117 -117) =     20.19120  eV     1   --> A_g            
     e(118 -119) =     20.34779  eV     2   --> A_u            
     e(118 -119) =     20.34779  eV     2   --> B_u            
     e(120 -120) =     20.74546  eV     1   --> B_u            

 **************************************************************************

 **************************************************************************

                    xk=(   0.57735,   0.40825,  -1.00000  )

     zone border point and non-symmorphic group 
     symmetry decomposition not available

 **************************************************************************

 **************************************************************************

                    xk=(   0.86603,   0.61237,  -0.50000  )

     zone border point and non-symmorphic group 
     symmetry decomposition not available

 **************************************************************************

 **************************************************************************

                    xk=(   0.86603,   0.61237,   0.00000  )

     point group C_s (m)    
     there are  2 classes
     the character table:

       E     s    
A'     1.00  1.00
A''    1.00 -1.00

     the symmetry operations in each class and the name of the first element:

     E        1
                                                                 
     s        2
                                                                 

     Band symmetry, C_s (m)     point group:

     e(  1 -  2) =   -106.79569  eV     2   -->   2 A'             
     e(  3 -  3) =    -64.88403  eV     1   --> A'             
     e(  4 -  4) =    -64.88381  eV     1   --> A''            
     e(  5 -  5) =    -64.88357  eV     1   --> A'             
     e(  6 -  6) =    -64.88225  eV     1   --> A'             
     e(  7 -  8) =    -55.10437  eV     2   --> A'             
     e(  7 -  8) =    -55.10437  eV     2   --> A''            
     e(  9 -  9) =    -55.10372  eV     1   --> A'             
     e( 10 - 10) =    -55.10340  eV     1   --> A'             
     e( 11 - 12) =    -55.10306  eV     2   --> A'             
     e( 11 - 12) =    -55.10306  eV     2   --> A''            
     e( 13 - 13) =    -36.28409  eV     1   --> A'             
     e( 14 - 14) =    -36.27895  eV     1   --> A'             
     e( 15 - 15) =    -36.27802  eV     1   --> A''            
     e( 16 - 16) =    -36.27729  eV     1   --> A'             
     e( 17 - 17) =    -36.27395  eV     1   --> A'             
     e( 18 - 18) =    -36.27351  eV     1   --> A''            
     e( 19 - 19) =    -36.27290  eV     1   --> A'             
     e( 20 - 20) =    -36.27278  eV     1   --> A'             
     e( 21 - 21) =    -36.27255  eV     1   --> A''            
     e( 22 - 22) =    -36.27169  eV     1   --> A''            
     e( 23 - 23) =    -36.27101  eV     1   --> A''            
     e( 24 - 24) =    -36.27069  eV     1   --> A'             
     e( 25 - 25) =     -5.78605  eV     1   --> A'             
     e( 26 - 26) =     -5.11826  eV     1   --> A'             
     e( 27 - 28) =     -4.55707  eV     2   --> A'             
     e( 27 - 28) =     -4.55707  eV     2   --> A''            
     e( 29 - 29) =     -4.54176  eV     1   --> A'             
     e( 30 - 30) =     -4.52414  eV     1   --> A'             
     e( 31 - 32) =     -4.38894  eV     2   --> A'             
     e( 31 - 32) =     -4.38894  eV     2   --> A''            
     e( 33 - 33) =      1.11542  eV     1   --> A'             
     e( 34 - 34) =      1.12805  eV     1   --> A'             
     e( 35 - 36) =      1.28187  eV     2   --> A'             
     e( 35 - 36) =      1.28187  eV     2   --> A''            
     e( 37 - 38) =      1.30889  eV     2   --> A'             
     e( 37 - 38) =      1.30889  eV     2   --> A''            
     e( 39 - 39) =      1.36862  eV     1   --> A'             
     e( 40 - 40) =      1.37914  eV     1   --> A''            
     e( 41 - 41) =      1.46730  eV     1   --> A'             
     e( 42 - 42) =      1.46798  eV     1   --> A''            
     e( 43 - 43) =      2.03051  eV     1   --> A'             
     e( 44 - 44) =      2.40696  eV     1   --> A'             
     e( 45 - 46) =      3.16754  eV     2   --> A'             
     e( 45 - 46) =      3.16754  eV     2   --> A''            
     e( 47 - 47) =      3.23062  eV     1   --> A'             
     e( 48 - 48) =      4.03500  eV     1   --> A'             
     e( 49 - 49) =      4.18571  eV     1   --> A''            
     e( 50 - 50) =      4.34814  eV     1   --> A'             
     e( 51 - 51) =      4.43306  eV     1   --> A''            
     e( 52 - 52) =      4.67234  eV     1   --> A'             
     e( 53 - 53) =      4.96593  eV     1   --> A''            
     e( 54 - 54) =      4.96617  eV     1   --> A'             
     e( 55 - 55) =      5.15898  eV     1   --> A''            
     e( 56 - 57) =      5.20574  eV     2   --> A'             
     e( 56 - 57) =      5.20574  eV     2   --> A''            
     e( 58 - 58) =      5.28381  eV     1   --> A'             
     e( 59 - 59) =      5.66113  eV     1   --> A'             
     e( 60 - 60) =      5.66123  eV     1   --> A''            
     e( 61 - 61) =      5.76119  eV     1   --> A''            
     e( 62 - 62) =      5.94258  eV     1   --> A'             
     e( 63 - 63) =      6.24204  eV     1   --> A''            
     e( 64 - 64) =      6.24219  eV     1   --> A'             
     e( 65 - 65) =      6.72672  eV     1   --> A''            
     e( 66 - 66) =      6.72697  eV     1   --> A'             
     e( 67 - 67) =      6.78262  eV     1   --> A'             
     e( 68 - 68) =      6.86215  eV     1   --> A''            
     e( 69 - 69) =      6.86228  eV     1   --> A'             
     e( 70 - 70) =      6.88236  eV     1   --> A''            
     e( 71 - 71) =      6.88311  eV     1   --> A'             
     e( 72 - 72) =      6.91530  eV     1   --> A''            
     e( 73 - 73) =      7.03147  eV     1   --> A'             
     e( 74 - 74) =      7.04181  eV     1   --> A'             
     e( 75 - 75) =      7.12746  eV     1   --> A'             
     e( 76 - 76) =      7.12778  eV     1   --> A''            
     e( 77 - 78) =      7.87283  eV     2   --> A'             
     e( 77 - 78) =      7.87283  eV     2   --> A''            
     e( 79 - 79) =      8.24795  eV     1   --> A'             
     e( 80 - 80) =      9.25661  eV     1   --> A'             
     e( 81 - 81) =      9.37241  eV     1   --> A''            
     e( 82 - 82) =      9.37277  eV     1   --> A'             
     e( 83 - 83) =      9.70609  eV     1   --> A'             
     e( 84 - 84) =      9.70650  eV     1   --> A''            
     e( 85 - 85) =      9.99454  eV     1   --> A''            
     e( 86 - 86) =     10.03568  eV     1   --> A''            
     e( 87 - 87) =     10.36991  eV     1   --> A'             
     e( 88 - 88) =     10.50191  eV     1   --> A'             
     e( 89 - 89) =     12.11492  eV     1   --> A'             
     e( 90 - 91) =     12.36754  eV     2   --> A'             
     e( 90 - 91) =     12.36754  eV     2   --> A''            
     e( 92 - 92) =     12.97801  eV     1   --> A'             
     e( 93 - 94) =     13.44537  eV     2   --> A'             
     e( 93 - 94) =     13.44537  eV     2   --> A''            
     e( 95 - 95) =     13.59528  eV     1   --> A'             
     e( 96 - 96) =     13.99710  eV     1   --> A'             
     e( 97 - 98) =     14.66803  eV     2   --> A'             
     e( 97 - 98) =     14.66803  eV     2   --> A''            
     e( 99 - 99) =     14.74615  eV     1   --> A'             
     e(100 -100) =     15.44325  eV     1   --> A''            
     e(101 -101) =     15.64066  eV     1   --> A'             
     e(102 -103) =     15.69485  eV     2   --> A'             
     e(102 -103) =     15.69485  eV     2   --> A''            
     e(104 -104) =     16.23372  eV     1   --> A'             
     e(105 -105) =     16.41916  eV     1   --> A''            
     e(106 -107) =     16.47509  eV     2   --> A'             
     e(106 -107) =     16.47509  eV     2   --> A''            
     e(108 -108) =     16.57059  eV     1   --> A''            
     e(109 -109) =     17.60583  eV     1   --> A'             
     e(110 -111) =     18.24617  eV     2   --> A'             
     e(110 -111) =     18.24617  eV     2   --> A''            
     e(112 -112) =     18.41730  eV     1   --> A'             
     e(113 -113) =     18.56928  eV     1   --> A'             
     e(114 -114) =     18.75343  eV     1   --> A'             
     e(115 -116) =     18.85782  eV     2   --> A'             
     e(115 -116) =     18.85782  eV     2   --> A''            
     e(117 -117) =     19.07176  eV     1   --> A''            
     e(118 -118) =     19.18730  eV     1   --> A'             
     e(119 -120) =     20.01121  eV     2   --> A'             
     e(119 -120) =     20.01121  eV     2   --> A''            

 **************************************************************************

 **************************************************************************

                    xk=(   0.00000,   0.00000,   0.00000  )

     point group C_2h (2/m) 
     there are  4 classes
     the character table:

       E     C2    i     s_h  
A_g    1.00  1.00  1.00  1.00
B_g    1.00 -1.00  1.00 -1.00
A_u    1.00  1.00 -1.00 -1.00
B_u    1.00 -1.00 -1.00  1.00

     the symmetry operations in each class and the name of the first element:

     E        1
                                                                 
     C2       2
                                                                 
     i        3
                                                                 
     s_h      4
                                                                 

     Band symmetry, C_2h (2/m)  point group:

     e(  1 -  2) =   -106.79569  eV     2   --> A_g            
     e(  1 -  2) =   -106.79569  eV     2   --> B_u            
     e(  3 -  3) =    -64.88407  eV     1   --> A_g            
     e(  4 -  4) =    -64.88382  eV     1   --> B_g            
     e(  5 -  5) =    -64.88356  eV     1   --> A_g            
     e(  6 -  6) =    -64.88226  eV     1   --> A_g            
     e(  7 -  7) =    -55.10489  eV     1   --> B_u            
     e(  8 - 10) =    -55.10474  eV     3   --> A_g            
     e(  8 - 10) =    -55.10474  eV     3   --> A_u            
     e(  8 - 10) =    -55.10474  eV     3   --> B_u            
     e( 11 - 12) =    -55.10456  eV     2   --> A_g            
     e( 11 - 12) =    -55.10456  eV     2   --> B_g            
     e( 13 - 13) =    -36.28535  eV     1   --> B_u            
     e( 14 - 14) =    -36.27853  eV     1   --> A_u            
     e( 15 - 15) =    -36.27841  eV     1   --> B_u            
     e( 16 - 16) =    -36.27782  eV     1   --> B_u            
     e( 17 - 18) =    -36.27388  eV     2   --> A_u            
     e( 17 - 18) =    -36.27388  eV     2   --> B_u            
     e( 19 - 21) =    -36.27241  eV     3   --> A_u            
     e( 19 - 21) =    -36.27241  eV     3   -->   2 B_u            
     e( 22 - 22) =    -36.27136  eV     1   --> A_u            
     e( 23 - 24) =    -36.27061  eV     2   --> A_u            
     e( 23 - 24) =    -36.27061  eV     2   --> B_u            
     e( 25 - 25) =     -5.93021  eV     1   --> A_g            
     e( 26 - 26) =     -5.00746  eV     1   --> B_u            
     e( 27 - 29) =     -4.49222  eV     3   --> A_u            
     e( 27 - 29) =     -4.49222  eV     3   -->   2 B_u            
     e( 30 - 32) =     -4.45061  eV     3   -->   2 A_g            
     e( 30 - 32) =     -4.45061  eV     3   --> B_g            
     e( 33 - 35) =      1.28528  eV     3   -->   2 A_g            
     e( 33 - 35) =      1.28528  eV     3   --> B_g            
     e( 36 - 37) =      1.35306  eV     2   --> A_u            
     e( 36 - 37) =      1.35306  eV     2   --> B_u            
     e( 38 - 40) =      1.37169  eV     3   --> A_u            
     e( 38 - 40) =      1.37169  eV     3   -->   2 B_u            
     e( 41 - 41) =      1.39122  eV     1   --> A_g            
     e( 42 - 43) =      1.47856  eV     2   --> A_g            
     e( 42 - 43) =      1.47856  eV     2   --> B_g            
     e( 44 - 44) =      2.06933  eV     1   --> B_u            
     e( 45 - 47) =      2.75883  eV     3   -->   2 A_g            
     e( 45 - 47) =      2.75883  eV     3   --> B_g            
     e( 48 - 49) =      4.13289  eV     2   --> A_u            
     e( 48 - 49) =      4.13289  eV     2   --> B_u            
     e( 50 - 51) =      4.46531  eV     2   --> A_g            
     e( 50 - 51) =      4.46531  eV     2   --> B_g            
     e( 52 - 52) =      5.11038  eV     1   --> B_g            
     e( 53 - 54) =      5.11060  eV     2   --> A_g            
     e( 53 - 54) =      5.11060  eV     2   --> B_g            
     e( 55 - 57) =      5.57573  eV     3   --> A_u            
     e( 55 - 57) =      5.57573  eV     3   -->   2 B_u            
     e( 58 - 60) =      5.67065  eV     3   -->   2 A_g            
     e( 58 - 60) =      5.67065  eV     3   --> B_g            
     e( 61 - 61) =      6.00579  eV     1   --> A_g            
     e( 62 - 64) =      6.34942  eV     3   -->   2 A_u            
     e( 62 - 64) =      6.34942  eV     3   --> B_u            
     e( 65 - 66) =      6.40019  eV     2   --> A_g            
     e( 65 - 66) =      6.40019  eV     2   --> B_g            
     e( 67 - 67) =      6.76171  eV     1   --> B_g            
     e( 68 - 68) =      6.76183  eV     1   --> A_g            
     e( 69 - 69) =      6.76239  eV     1   --> A_g            
     e( 70 - 70) =      6.86608  eV     1   --> B_g            
     e( 71 - 72) =      6.86651  eV     2   --> A_g            
     e( 71 - 72) =      6.86651  eV     2   --> B_g            
     e( 73 - 73) =      6.97175  eV     1   --> A_g            
     e( 74 - 75) =      6.97211  eV     2   --> A_g            
     e( 74 - 75) =      6.97211  eV     2   --> B_g            
     e( 76 - 78) =      7.90097  eV     3   --> A_u            
     e( 76 - 78) =      7.90097  eV     3   -->   2 B_u            
     e( 79 - 79) =      8.53067  eV     1   --> B_u            
     e( 80 - 80) =      9.27029  eV     1   --> A_g            
     e( 81 - 81) =      9.63351  eV     1   --> A_g            
     e( 82 - 83) =      9.63374  eV     2   --> A_g            
     e( 82 - 83) =      9.63374  eV     2   --> B_g            
     e( 84 - 84) =     10.03542  eV     1   --> B_g            
     e( 85 - 86) =     10.03563  eV     2   --> A_g            
     e( 85 - 86) =     10.03563  eV     2   --> B_g            
     e( 87 - 88) =     10.12796  eV     2   --> A_g            
     e( 87 - 88) =     10.12796  eV     2   --> B_g            
     e( 89 - 90) =     11.58497  eV     2   --> A_g            
     e( 89 - 90) =     11.58497  eV     2   --> B_g            
     e( 91 - 91) =     11.58510  eV     1   --> A_g            
     e( 92 - 94) =     12.62103  eV     3   --> A_u            
     e( 92 - 94) =     12.62103  eV     3   -->   2 B_u            
     e( 95 - 95) =     12.66473  eV     1   --> A_g            
     e( 96 - 98) =     14.38324  eV     3   --> A_u            
     e( 96 - 98) =     14.38324  eV     3   -->   2 B_u            
     e( 99 -100) =     14.91148  eV     2   --> A_g            
     e( 99 -100) =     14.91148  eV     2   --> B_g            
     e(101 -103) =     15.87621  eV     3   -->   2 A_u            
     e(101 -103) =     15.87621  eV     3   --> B_u            
     e(104 -106) =     16.07595  eV     3   -->   2 A_g            
     e(104 -106) =     16.07595  eV     3   --> B_g            
     e(107 -108) =     16.16020  eV     2   --> A_u            
     e(107 -108) =     16.16020  eV     2   --> B_u            
     e(109 -109) =     18.23044  eV     1   --> B_u            
     e(110 -110) =     18.27724  eV     1   --> A_g            
     e(111 -113) =     19.04060  eV     3   -->   2 A_g            
     e(111 -113) =     19.04060  eV     3   --> B_g            
     e(114 -115) =     19.93899  eV     2   --> A_u            
     e(114 -115) =     19.93899  eV     2   --> B_u            
     e(116 -116) =     19.93914  eV     1   --> B_u            
     e(117 -117) =     20.19120  eV     1   --> A_g            
     e(118 -119) =     20.34779  eV     2   --> A_u            
     e(118 -119) =     20.34779  eV     2   --> B_u            
     e(120 -120) =     20.74546  eV     1   --> B_u            

 **************************************************************************

 **************************************************************************

                    xk=(   0.00000,   0.61237,   0.00000  )

     zone border point and non-symmorphic group 
     symmetry decomposition not available

 **************************************************************************

 **************************************************************************

                    xk=(  -0.21651,   0.61237,   0.37500  )

     point group C_1 (1)    
     there are  1 classes
     the character table:

       E    
A      1.00

     the symmetry operations in each class and the name of the first element:

     E        1
                                                                 

     Band symmetry, C_1 (1)     point group:

     e(  1 -  2) =   -106.79569  eV     2   -->   2 A              
     e(  3 -  4) =    -64.88396  eV     2   -->   2 A              
     e(  5 -  5) =    -64.88358  eV     1   --> A              
     e(  6 -  6) =    -64.88226  eV     1   --> A              
     e(  7 -  7) =    -55.10527  eV     1   --> A              
     e(  8 -  8) =    -55.10450  eV     1   --> A              
     e(  9 -  9) =    -55.10402  eV     1   --> A              
     e( 10 - 11) =    -55.10360  eV     2   -->   2 A              
     e( 12 - 12) =    -55.10317  eV     1   --> A              
     e( 13 - 13) =    -36.28167  eV     1   --> A              
     e( 14 - 14) =    -36.28084  eV     1   --> A              
     e( 15 - 15) =    -36.27725  eV     1   --> A              
     e( 16 - 16) =    -36.27669  eV     1   --> A              
     e( 17 - 17) =    -36.27417  eV     1   --> A              
     e( 18 - 18) =    -36.27364  eV     1   --> A              
     e( 19 - 19) =    -36.27335  eV     1   --> A              
     e( 20 - 20) =    -36.27290  eV     1   --> A              
     e( 21 - 21) =    -36.27259  eV     1   --> A              
     e( 22 - 22) =    -36.27218  eV     1   --> A              
     e( 23 - 23) =    -36.27143  eV     1   --> A              
     e( 24 - 24) =    -36.27083  eV     1   --> A              
     e( 25 - 25) =     -5.49548  eV     1   --> A              
     e( 26 - 26) =     -5.37646  eV     1   --> A              
     e( 27 - 27) =     -4.73120  eV     1   --> A              
     e( 28 - 28) =     -4.57135  eV     1   --> A              
     e( 29 - 29) =     -4.55920  eV     1   --> A              
     e( 30 - 30) =     -4.44251  eV     1   --> A              
     e( 31 - 31) =     -4.39763  eV     1   --> A              
     e( 32 - 32) =     -4.37819  eV     1   --> A              
     e( 33 - 33) =      1.01017  eV     1   --> A              
     e( 34 - 34) =      1.06268  eV     1   --> A              
     e( 35 - 35) =      1.23438  eV     1   --> A              
     e( 36 - 36) =      1.27550  eV     1   --> A              
     e( 37 - 37) =      1.28628  eV     1   --> A              
     e( 38 - 38) =      1.33237  eV     1   --> A              
     e( 39 - 39) =      1.42008  eV     1   --> A              
     e( 40 - 40) =      1.42048  eV     1   --> A              
     e( 41 - 41) =      1.43566  eV     1   --> A              
     e( 42 - 42) =      1.44022  eV     1   --> A              
     e( 43 - 43) =      2.69994  eV     1   --> A              
     e( 44 - 44) =      2.74704  eV     1   --> A              
     e( 45 - 45) =      3.50879  eV     1   --> A              
     e( 46 - 46) =      3.61559  eV     1   --> A              
     e( 47 - 47) =      3.94966  eV     1   --> A              
     e( 48 - 48) =      3.98004  eV     1   --> A              
     e( 49 - 49) =      4.08887  eV     1   --> A              
     e( 50 - 50) =      4.23707  eV     1   --> A              
     e( 51 - 51) =      4.32631  eV     1   --> A              
     e( 52 - 52) =      4.38513  eV     1   --> A              
     e( 53 - 53) =      4.45937  eV     1   --> A              
     e( 54 - 54) =      4.62632  eV     1   --> A              
     e( 55 - 55) =      4.81616  eV     1   --> A              
     e( 56 - 56) =      4.89367  eV     1   --> A              
     e( 57 - 57) =      5.07445  eV     1   --> A              
     e( 58 - 58) =      5.19713  eV     1   --> A              
     e( 59 - 59) =      5.27903  eV     1   --> A              
     e( 60 - 60) =      5.50944  eV     1   --> A              
     e( 61 - 61) =      5.62462  eV     1   --> A              
     e( 62 - 62) =      5.93809  eV     1   --> A              
     e( 63 - 63) =      6.09876  eV     1   --> A              
     e( 64 - 64) =      6.11190  eV     1   --> A              
     e( 65 - 65) =      6.15520  eV     1   --> A              
     e( 66 - 66) =      6.65851  eV     1   --> A              
     e( 67 - 67) =      6.81705  eV     1   --> A              
     e( 68 - 68) =      6.82296  eV     1   --> A              
     e( 69 - 69) =      6.86121  eV     1   --> A              
     e( 70 - 70) =      6.94681  eV     1   --> A              
     e( 71 - 71) =      7.03240  eV     1   --> A              
     e( 72 - 72) =      7.09855  eV     1   --> A              
     e( 73 - 73) =      7.16410  eV     1   --> A              
     e( 74 - 74) =      7.21338  eV     1   --> A              
     e( 75 - 75) =      7.47041  eV     1   --> A              
     e( 76 - 76) =      7.49707  eV     1   --> A              
     e( 77 - 77) =      7.54885  eV     1   --> A              
     e( 78 - 78) =      7.68900  eV     1   --> A              
     e( 79 - 79) =      8.53133  eV     1   --> A              
     e( 80 - 80) =      8.65974  eV     1   --> A              
     e( 81 - 81) =      8.98117  eV     1   --> A              
     e( 82 - 82) =      9.04916  eV     1   --> A              
     e( 83 - 83) =      9.26092  eV     1   --> A              
     e( 84 - 84) =      9.45634  eV     1   --> A              
     e( 85 - 85) =      9.68885  eV     1   --> A              
     e( 86 - 86) =      9.96167  eV     1   --> A              
     e( 87 - 87) =     11.06793  eV     1   --> A              
     e( 88 - 88) =     11.27996  eV     1   --> A              
     e( 89 - 89) =     13.03598  eV     1   --> A              
     e( 90 - 90) =     13.60363  eV     1   --> A              
     e( 91 - 91) =     13.60905  eV     1   --> A              
     e( 92 - 92) =     13.93374  eV     1   --> A              
     e( 93 - 93) =     14.05110  eV     1   --> A              
     e( 94 - 94) =     14.19175  eV     1   --> A              
     e( 95 - 95) =     14.33817  eV     1   --> A              
     e( 96 - 96) =     14.46895  eV     1   --> A              
     e( 97 - 97) =     14.52690  eV     1   --> A              
     e( 98 - 98) =     14.90541  eV     1   --> A              
     e( 99 - 99) =     15.11739  eV     1   --> A              
     e(100 -100) =     15.44056  eV     1   --> A              
     e(101 -101) =     15.45634  eV     1   --> A              
     e(102 -102) =     15.60986  eV     1   --> A              
     e(103 -103) =     15.69976  eV     1   --> A              
     e(104 -104) =     15.78807  eV     1   --> A              
     e(105 -105) =     15.91918  eV     1   --> A              
     e(106 -106) =     16.28309  eV     1   --> A              
     e(107 -107) =     16.75787  eV     1   --> A              
     e(108 -108) =     17.04059  eV     1   --> A              
     e(109 -109) =     17.20591  eV     1   --> A              
     e(110 -110) =     17.21045  eV     1   --> A              
     e(111 -111) =     17.43442  eV     1   --> A              
     e(112 -112) =     17.47762  eV     1   --> A              
     e(113 -113) =     17.62521  eV     1   --> A              
     e(114 -114) =     17.73747  eV     1   --> A              
     e(115 -115) =     17.78432  eV     1   --> A              
     e(116 -116) =     18.11332  eV     1   --> A              
     e(117 -117) =     18.46439  eV     1   --> A              
     e(118 -118) =     18.56490  eV     1   --> A              
     e(119 -119) =     18.69121  eV     1   --> A              
     e(120 -120) =     18.78329  eV     1   --> A              

 **************************************************************************

 **************************************************************************

                    xk=(   0.86603,   0.61237,  -0.50000  )

     zone border point and non-symmorphic group 
     symmetry decomposition not available

 **************************************************************************

 **************************************************************************

                    xk=(   0.00000,   0.61237,   0.00000  )

     zone border point and non-symmorphic group 
     symmetry decomposition not available

 **************************************************************************

 **************************************************************************

                    xk=(   0.86603,   0.61237,   0.00000  )

     point group C_s (m)    
     there are  2 classes
     the character table:

       E     s    
A'     1.00  1.00
A''    1.00 -1.00

     the symmetry operations in each class and the name of the first element:

     E        1
                                                                 
     s        2
                                                                 

     Band symmetry, C_s (m)     point group:

     e(  1 -  2) =   -106.79569  eV     2   -->   2 A'             
     e(  3 -  3) =    -64.88403  eV     1   --> A'             
     e(  4 -  4) =    -64.88381  eV     1   --> A''            
     e(  5 -  5) =    -64.88357  eV     1   --> A'             
     e(  6 -  6) =    -64.88225  eV     1   --> A'             
     e(  7 -  8) =    -55.10437  eV     2   --> A'             
     e(  7 -  8) =    -55.10437  eV     2   --> A''            
     e(  9 -  9) =    -55.10372  eV     1   --> A'             
     e( 10 - 10) =    -55.10340  eV     1   --> A'             
     e( 11 - 12) =    -55.10306  eV     2   --> A'             
     e( 11 - 12) =    -55.10306  eV     2   --> A''            
     e( 13 - 13) =    -36.28409  eV     1   --> A'             
     e( 14 - 14) =    -36.27895  eV     1   --> A'             
     e( 15 - 15) =    -36.27802  eV     1   --> A''            
     e( 16 - 16) =    -36.27729  eV     1   --> A'             
     e( 17 - 17) =    -36.27395  eV     1   --> A'             
     e( 18 - 18) =    -36.27351  eV     1   --> A''            
     e( 19 - 19) =    -36.27290  eV     1   --> A'             
     e( 20 - 20) =    -36.27278  eV     1   --> A'             
     e( 21 - 21) =    -36.27255  eV     1   --> A''            
     e( 22 - 22) =    -36.27169  eV     1   --> A''            
     e( 23 - 23) =    -36.27101  eV     1   --> A''            
     e( 24 - 24) =    -36.27069  eV     1   --> A'             
     e( 25 - 25) =     -5.78605  eV     1   --> A'             
     e( 26 - 26) =     -5.11826  eV     1   --> A'             
     e( 27 - 28) =     -4.55707  eV     2   --> A'             
     e( 27 - 28) =     -4.55707  eV     2   --> A''            
     e( 29 - 29) =     -4.54176  eV     1   --> A'             
     e( 30 - 30) =     -4.52414  eV     1   --> A'             
     e( 31 - 32) =     -4.38894  eV     2   --> A'             
     e( 31 - 32) =     -4.38894  eV     2   --> A''            
     e( 33 - 33) =      1.11542  eV     1   --> A'             
     e( 34 - 34) =      1.12805  eV     1   --> A'             
     e( 35 - 36) =      1.28187  eV     2   --> A'             
     e( 35 - 36) =      1.28187  eV     2   --> A''            
     e( 37 - 38) =      1.30889  eV     2   --> A'             
     e( 37 - 38) =      1.30889  eV     2   --> A''            
     e( 39 - 39) =      1.36862  eV     1   --> A'             
     e( 40 - 40) =      1.37914  eV     1   --> A''            
     e( 41 - 41) =      1.46730  eV     1   --> A'             
     e( 42 - 42) =      1.46798  eV     1   --> A''            
     e( 43 - 43) =      2.03051  eV     1   --> A'             
     e( 44 - 44) =      2.40696  eV     1   --> A'             
     e( 45 - 46) =      3.16754  eV     2   --> A'             
     e( 45 - 46) =      3.16754  eV     2   --> A''            
     e( 47 - 47) =      3.23062  eV     1   --> A'             
     e( 48 - 48) =      4.03500  eV     1   --> A'             
     e( 49 - 49) =      4.18571  eV     1   --> A''            
     e( 50 - 50) =      4.34814  eV     1   --> A'             
     e( 51 - 51) =      4.43306  eV     1   --> A''            
     e( 52 - 52) =      4.67234  eV     1   --> A'             
     e( 53 - 53) =      4.96593  eV     1   --> A''            
     e( 54 - 54) =      4.96617  eV     1   --> A'             
     e( 55 - 55) =      5.15898  eV     1   --> A''            
     e( 56 - 57) =      5.20574  eV     2   --> A'             
     e( 56 - 57) =      5.20574  eV     2   --> A''            
     e( 58 - 58) =      5.28381  eV     1   --> A'             
     e( 59 - 59) =      5.66113  eV     1   --> A'             
     e( 60 - 60) =      5.66123  eV     1   --> A''            
     e( 61 - 61) =      5.76119  eV     1   --> A''            
     e( 62 - 62) =      5.94258  eV     1   --> A'             
     e( 63 - 63) =      6.24204  eV     1   --> A''            
     e( 64 - 64) =      6.24219  eV     1   --> A'             
     e( 65 - 65) =      6.72672  eV     1   --> A''            
     e( 66 - 66) =      6.72697  eV     1   --> A'             
     e( 67 - 67) =      6.78262  eV     1   --> A'             
     e( 68 - 68) =      6.86215  eV     1   --> A''            
     e( 69 - 69) =      6.86228  eV     1   --> A'             
     e( 70 - 70) =      6.88236  eV     1   --> A''            
     e( 71 - 71) =      6.88311  eV     1   --> A'             
     e( 72 - 72) =      6.91530  eV     1   --> A''            
     e( 73 - 73) =      7.03147  eV     1   --> A'             
     e( 74 - 74) =      7.04181  eV     1   --> A'             
     e( 75 - 75) =      7.12746  eV     1   --> A'             
     e( 76 - 76) =      7.12778  eV     1   --> A''            
     e( 77 - 78) =      7.87283  eV     2   --> A'             
     e( 77 - 78) =      7.87283  eV     2   --> A''            
     e( 79 - 79) =      8.24795  eV     1   --> A'             
     e( 80 - 80) =      9.25661  eV     1   --> A'             
     e( 81 - 81) =      9.37241  eV     1   --> A''            
     e( 82 - 82) =      9.37277  eV     1   --> A'             
     e( 83 - 83) =      9.70609  eV     1   --> A'             
     e( 84 - 84) =      9.70650  eV     1   --> A''            
     e( 85 - 85) =      9.99454  eV     1   --> A''            
     e( 86 - 86) =     10.03568  eV     1   --> A''            
     e( 87 - 87) =     10.36991  eV     1   --> A'             
     e( 88 - 88) =     10.50191  eV     1   --> A'             
     e( 89 - 89) =     12.11492  eV     1   --> A'             
     e( 90 - 91) =     12.36754  eV     2   --> A'             
     e( 90 - 91) =     12.36754  eV     2   --> A''            
     e( 92 - 92) =     12.97801  eV     1   --> A'             
     e( 93 - 94) =     13.44537  eV     2   --> A'             
     e( 93 - 94) =     13.44537  eV     2   --> A''            
     e( 95 - 95) =     13.59528  eV     1   --> A'             
     e( 96 - 96) =     13.99710  eV     1   --> A'             
     e( 97 - 98) =     14.66803  eV     2   --> A'             
     e( 97 - 98) =     14.66803  eV     2   --> A''            
     e( 99 - 99) =     14.74615  eV     1   --> A'             
     e(100 -100) =     15.44325  eV     1   --> A''            
     e(101 -101) =     15.64066  eV     1   --> A'             
     e(102 -103) =     15.69485  eV     2   --> A'             
     e(102 -103) =     15.69485  eV     2   --> A''            
     e(104 -104) =     16.23372  eV     1   --> A'             
     e(105 -105) =     16.41916  eV     1   --> A''            
     e(106 -107) =     16.47509  eV     2   --> A'             
     e(106 -107) =     16.47509  eV     2   --> A''            
     e(108 -108) =     16.57059  eV     1   --> A''            
     e(109 -109) =     17.60583  eV     1   --> A'             
     e(110 -111) =     18.24617  eV     2   --> A'             
     e(110 -111) =     18.24617  eV     2   --> A''            
     e(112 -112) =     18.41730  eV     1   --> A'             
     e(113 -113) =     18.56928  eV     1   --> A'             
     e(114 -114) =     18.75343  eV     1   --> A'             
     e(115 -116) =     18.85782  eV     2   --> A'             
     e(115 -116) =     18.85782  eV     2   --> A''            
     e(117 -117) =     19.07176  eV     1   --> A''            
     e(118 -118) =     19.18730  eV     1   --> A'             
     e(119 -120) =     20.01121  eV     2   --> A'             
     e(119 -120) =     20.01121  eV     2   --> A''            

 **************************************************************************

     BANDS        :     37.82s CPU     43.84s WALL


   This run was terminated on:   9: 3:13  16Jul2024            

=------------------------------------------------------------------------------=
   JOB DONE.
=------------------------------------------------------------------------------=
