
     Program PWSCF v.6.7MaX starts on  9Jul2024 at  0:46:31 

     This program is part of the open-source Quantum ESPRESSO suite
     for quantum simulation of materials; please cite
         "P. Giannozzi et al., J. Phys.:Condens. Matter 21 395502 (2009);
         "P. Giannozzi et al., J. Phys.:Condens. Matter 29 465901 (2017);
          URL http://www.quantum-espresso.org", 
     in publications or presentations arising from this work. More details at
     http://www.quantum-espresso.org/quote

     Parallel version (MPI), running on     4 processors

     MPI processes distributed on     1 nodes
     R & G space division:  proc/nbgrp/npool/nimage =       4
     Waiting for input...
     Reading input from standard input

     Current dimensions of program PWSCF are:
     Max number of different atomic species (ntypx) = 10
     Max number of k-points (npk) =  40000
     Max angular momentum in pseudopotentials (lmaxx) =  3

     Atomic positions and unit cell read from directory:
     /home/hafidz/Documents/PKL/Kalkulasi-DFT/Project-Shift-Current-Multi-Weyl-Semimetal/Cr2HgSe4/Primitive-2/outdir/Cr2HgSe4-SC-Project-2.save/
     Atomic positions from file used, from input discarded

     file Cr.pbe-spn-rrkjus_psl.1.0.0.UPF: wavefunction(s)  3P renormalized
     file Hg.pbe-spn-rrkjus_psl.1.0.0.UPF: wavefunction(s)  5P renormalized

     Subspace diagonalization in iterative solution of the eigenvalue problem:
     one sub-group per band group will be used
     scalapack distributed-memory algorithm (size of sub-group:  2*  2 procs)

     Message from routine setup:
     using ibrav=0 with symmetry is DISCOURAGED, use correct ibrav instead

     Parallelization info
     --------------------
     sticks:   dense  smooth     PW     G-vecs:    dense   smooth      PW
     Min        1171     729    211                52939    26143    4011
     Max        1174     730    212                52940    26146    4013
     Sum        4687    2917    847               211759   104579   16049



     bravais-lattice index     =            0
     lattice parameter (alat)  =      14.5738  a.u.
     unit-cell volume          =    2188.7812 (a.u.)^3
     number of atoms/cell      =           14
     number of atomic types    =            3
     number of electrons       =       144.00
     number of Kohn-Sham states=          120
     kinetic-energy cutoff     =      50.0000  Ry
     charge density cutoff     =     320.0000  Ry
     Exchange-correlation= PBE
                           (   1   4   3   4   0   0   0)

     celldm(1)=  14.573788  celldm(2)=   0.000000  celldm(3)=   0.000000
     celldm(4)=   0.000000  celldm(5)=   0.000000  celldm(6)=   0.000000

     crystal axes: (cart. coord. in units of alat)
               a(1) = (   0.288675   0.816497   0.500000 )  
               a(2) = (   0.288675   0.816497  -0.500000 )  
               a(3) = (  -0.577350   0.816497   0.000000 )  

     reciprocal axes: (cart. coord. in units 2 pi/alat)
               b(1) = (  0.577350  0.408248  1.000000 )  
               b(2) = (  0.577350  0.408248 -1.000000 )  
               b(3) = ( -1.154701  0.408248  0.000000 )  


     PseudoPot. # 1 for Cr read from file:
     /home/hafidz/Documents/DFT/Pseudopotential/rrkjus/Cr.pbe-spn-rrkjus_psl.1.0.0.UPF
     MD5 check sum: ac5cc0a679be6eadbc07e1887cd97696
     Pseudo is Ultrasoft + core correction, Zval = 14.0
     Generated using "atomic" code by A. Dal Corso  v.5.1.2
     Using radial grid of 1183 points,  6 beta functions with: 
                l(1) =   0
                l(2) =   0
                l(3) =   1
                l(4) =   1
                l(5) =   2
                l(6) =   2
     Q(r) pseudized with 0 coefficients 


     PseudoPot. # 2 for Hg read from file:
     /home/hafidz/Documents/DFT/Pseudopotential/rrkjus/Hg.pbe-spn-rrkjus_psl.1.0.0.UPF
     MD5 check sum: 65689333edf7621de08780c51a426de3
     Pseudo is Ultrasoft + core correction, Zval = 20.0
     Generated using "atomic" code by A. Dal Corso  v.5.1.2
     Using radial grid of 1279 points,  6 beta functions with: 
                l(1) =   0
                l(2) =   0
                l(3) =   1
                l(4) =   1
                l(5) =   2
                l(6) =   2
     Q(r) pseudized with 0 coefficients 


     PseudoPot. # 3 for Se read from file:
     /home/hafidz/Documents/DFT/Pseudopotential/rrkjus/Se.pbe-n-rrkjus_psl.1.0.0.UPF
     MD5 check sum: 5f5e5c15c95449acb3b45b44a6529d2d
     Pseudo is Ultrasoft + core correction, Zval =  6.0
     Generated using "atomic" code by A. Dal Corso  v.5.1.2
     Using radial grid of 1211 points,  4 beta functions with: 
                l(1) =   0
                l(2) =   0
                l(3) =   1
                l(4) =   1
     Q(r) pseudized with 0 coefficients 


     atomic species   valence    mass     pseudopotential
        Cr            14.00    51.99610     Cr( 1.00)
        Hg            20.00   200.59200     Hg( 1.00)
        Se             6.00    78.97100     Se( 1.00)

     Starting magnetic structure 
     atomic species   magnetization
        Cr           0.100
        Hg           0.000
        Se           0.000

      4 Sym. Ops., with inversion, found ( 2 have fractional translation)



   Cartesian axes

     site n.     atom                  positions (alat units)
         1           Cr  tau(   1) = (   0.1443375   1.3268070   0.2500000  )
         2           Cr  tau(   2) = (  -0.2886752   1.3268070   0.0000000  )
         3           Cr  tau(   3) = (  -0.0000000   0.9185587   0.0000000  )
         4           Cr  tau(   4) = (   0.1443375   1.3268070  -0.2500000  )
         5           Hg  tau(   5) = (   0.0000012  -0.0000004   0.0000000  )
         6           Hg  tau(   6) = (  -0.0000013   1.8371178   0.0000000  )
         7           Se  tau(   7) = (   0.1243423   0.7002960   0.2153674  )
         8           Se  tau(   8) = (  -0.2486845   0.7002958   0.0000000  )
         9           Se  tau(   9) = (  -0.1243423   1.1368214  -0.2153674  )
        10           Se  tau(  10) = (   0.1243423   0.7002960  -0.2153674  )
        11           Se  tau(  11) = (  -0.0000002   0.3486022   0.0000000  )
        12           Se  tau(  12) = (  -0.1243423   1.1368214   0.2153674  )
        13           Se  tau(  13) = (   0.0000001   1.4885152   0.0000000  )
        14           Se  tau(  14) = (   0.2486844   1.1368216   0.0000000  )

     number of k points=    25  Marzari-Vanderbilt smearing, width (Ry)=  0.1000
                       cart. coord. in units 2pi/alat
        k(    1) = (   0.0000000   0.0000000   0.0000000), wk =   0.0400000
        k(    2) = (   0.1154701   0.0816497  -0.2000000), wk =   0.0400000
        k(    3) = (   0.2309401   0.1632993  -0.4000000), wk =   0.0400000
        k(    4) = (   0.3464102   0.2449490  -0.6000000), wk =   0.0400000
        k(    5) = (   0.4618802   0.3265986  -0.8000001), wk =   0.0400000
        k(    6) = (   0.1154701   0.0816497   0.2000000), wk =   0.0400000
        k(    7) = (   0.2309401   0.1632993   0.0000000), wk =   0.0400000
        k(    8) = (   0.3464102   0.2449490  -0.2000000), wk =   0.0400000
        k(    9) = (   0.4618802   0.3265986  -0.4000000), wk =   0.0400000
        k(   10) = (   0.5773503   0.4082483  -0.6000000), wk =   0.0400000
        k(   11) = (   0.2309401   0.1632993   0.4000000), wk =   0.0400000
        k(   12) = (   0.3464102   0.2449490   0.2000000), wk =   0.0400000
        k(   13) = (   0.4618802   0.3265986   0.0000000), wk =   0.0400000
        k(   14) = (   0.5773503   0.4082483  -0.2000000), wk =   0.0400000
        k(   15) = (   0.6928203   0.4898980  -0.4000000), wk =   0.0400000
        k(   16) = (   0.3464102   0.2449490   0.6000000), wk =   0.0400000
        k(   17) = (   0.4618802   0.3265986   0.4000000), wk =   0.0400000
        k(   18) = (   0.5773503   0.4082483   0.2000000), wk =   0.0400000
        k(   19) = (   0.6928203   0.4898980   0.0000000), wk =   0.0400000
        k(   20) = (   0.8082904   0.5715476  -0.2000000), wk =   0.0400000
        k(   21) = (   0.4618802   0.3265986   0.8000001), wk =   0.0400000
        k(   22) = (   0.5773503   0.4082483   0.6000000), wk =   0.0400000
        k(   23) = (   0.6928203   0.4898980   0.4000000), wk =   0.0400000
        k(   24) = (   0.8082904   0.5715476   0.2000000), wk =   0.0400000
        k(   25) = (   0.9237604   0.6531973   0.0000000), wk =   0.0400000

     Dense  grid:   211759 G-vectors     FFT dimensions: (  96,  96,  96)

     Smooth grid:   104579 G-vectors     FFT dimensions: (  72,  72,  72)

     Estimated max dynamical RAM per process >     210.36 MB

     Estimated total dynamical RAM >     841.44 MB

     Check: negative core charge=   -0.000002
     Generating pointlists ...
     new r_m :   0.1365 (alat units)  1.9892 (a.u.) for type    1
     new r_m :   0.1438 (alat units)  2.0957 (a.u.) for type    2
     new r_m :   0.1365 (alat units)  1.9892 (a.u.) for type    3

     The potential is recalculated from file :
     /home/hafidz/Documents/PKL/Kalkulasi-DFT/Project-Shift-Current-Multi-Weyl-Semimetal/Cr2HgSe4/Primitive-2/outdir/Cr2HgSe4-SC-Project-2.save/charge-density

     Starting wfcs are   92 randomized atomic wfcs +   28 random wfcs

     Band Structure Calculation
     Davidson diagonalization with overlap

     ethr =  1.94E-10,  avg # of iterations = 54.0

     total cpu time spent up to now is     2117.2 secs

     End of band structure calculation

 ------ SPIN UP ------------


          k = 0.0000 0.0000 0.0000 ( 13107 PWs)   bands (ev):

  -106.7957-106.7957 -64.8841 -64.8838 -64.8836 -64.8823 -55.1049 -55.1047
   -55.1047 -55.1047 -55.1046 -55.1045 -36.2853 -36.2785 -36.2784 -36.2778
   -36.2739 -36.2739 -36.2724 -36.2724 -36.2723 -36.2714 -36.2706 -36.2705
    -5.9302  -5.0075  -4.4922  -4.4922  -4.4921  -4.4506  -4.4506  -4.4505
     1.2853   1.2853   1.2853   1.3531   1.3531   1.3717   1.3717   1.3717
     1.3912   1.4786   1.4786   2.0693   2.7588   2.7589   2.7589   4.1329
     4.1329   4.4653   4.4653   5.1104   5.1106   5.1106   5.5757   5.5757
     5.5758   5.6707   5.6707   5.6707   6.0058   6.3494   6.3494   6.3494
     6.4002   6.4002   6.7617   6.7618   6.7624   6.8661   6.8665   6.8666
     6.9718   6.9721   6.9722   7.9010   7.9010   7.9010   8.5307   9.2703
     9.6335   9.6337   9.6338  10.0354  10.0356  10.0357  10.1280  10.1280
    11.5850  11.5850  11.5851  12.6210  12.6211  12.6211  12.6647  14.3832
    14.3833  14.3833  14.9115  14.9115  15.8762  15.8762  15.8762  16.0760
    16.0760  16.0760  16.1602  16.1602  18.2304  18.2772  19.0406  19.0406
    19.0407  19.9390  19.9390  19.9391  20.1912  20.3478  20.3478  20.7455

          k = 0.1155 0.0816-0.2000 ( 13128 PWs)   bands (ev):

  -106.7957-106.7957 -64.8841 -64.8838 -64.8836 -64.8823 -55.1063 -55.1061
   -55.1056 -55.1046 -55.1044 -55.1037 -36.2847 -36.2787 -36.2782 -36.2776
   -36.2738 -36.2738 -36.2728 -36.2725 -36.2725 -36.2716 -36.2708 -36.2706
    -5.8605  -5.0638  -4.5720  -4.5054  -4.5053  -4.4394  -4.4393  -4.4300
     1.1426   1.2112   1.2817   1.2817   1.3444   1.3445   1.3703   1.3704
     1.4736   1.4736   1.7457   2.2563   2.9129   2.9130   3.1171   4.0990
     4.0990   4.4374   4.4374   4.9279   5.0762   5.0826   5.0828   5.3467
     5.3995   5.3995   5.7258   5.7258   6.1128   6.1130   6.2144   6.4316
     6.6008   6.6009   6.6122   6.7964   6.7968   6.8665   6.9508   6.9510
     6.9632   6.9721   6.9722   7.4334   7.8939   7.8939   8.4209   9.5215
     9.5217   9.7257   9.7258   9.8518   9.9030  10.0533  10.0536  10.0844
    11.8257  11.8970  11.8971  12.7887  13.0452  13.2066  13.2066  14.1058
    14.3714  14.3714  15.2515  15.2516  15.4529  15.4529  15.5673  16.2073
    16.2073  16.2609  16.6983  16.6983  18.3409  18.6449  19.0230  19.0231
    19.1020  19.1589  19.1590  19.2377  19.5816  19.6422  19.6422  20.1130

          k = 0.2309 0.1633-0.4000 ( 13067 PWs)   bands (ev):

  -106.7957-106.7957 -64.8840 -64.8839 -64.8836 -64.8823 -55.1050 -55.1048
   -55.1044 -55.1040 -55.1038 -55.1035 -36.2835 -36.2791 -36.2779 -36.2772
   -36.2739 -36.2735 -36.2733 -36.2729 -36.2728 -36.2718 -36.2711 -36.2706
    -5.6982  -5.2252  -4.6302  -4.5204  -4.5203  -4.4454  -4.4276  -4.4275
     1.0362   1.1214   1.2835   1.2835   1.3049   1.3050   1.3944   1.3944
     1.4612   1.4613   2.2057   2.5209   3.2655   3.2656   3.8733   3.9493
     3.9494   4.3791   4.3792   4.4259   4.7112   5.0094   5.0095   5.0266
     5.1053   5.1055   5.3216   5.7991   5.7992   6.0507   6.0510   6.5651
     6.6171   6.6681   6.6681   6.8525   6.8525   6.8662   6.9542   6.9542
     7.0675   7.2193   7.2747   7.2749   7.7091   7.7092   8.3952   9.2182
     9.2185   9.4116   9.4117   9.6929  10.0119  10.0122  10.3350  10.4432
    12.6315  12.6316  12.6793  13.1309  13.5987  13.6359  13.6360  13.9488
    14.5763  14.5763  15.1559  15.1559  15.2713  16.4346  16.4346  16.6534
    16.6534  16.9352  17.1327  17.2834  17.2834  17.6377  17.6377  17.6604
    18.0244  18.1310  18.1310  18.4040  18.4040  19.2252  19.3357  19.3357

          k = 0.3464 0.2449-0.6000 ( 13067 PWs)   bands (ev):

  -106.7957-106.7957 -64.8840 -64.8839 -64.8836 -64.8823 -55.1050 -55.1048
   -55.1044 -55.1040 -55.1038 -55.1035 -36.2835 -36.2791 -36.2779 -36.2772
   -36.2739 -36.2735 -36.2733 -36.2729 -36.2728 -36.2718 -36.2711 -36.2706
    -5.6982  -5.2252  -4.6302  -4.5204  -4.5203  -4.4454  -4.4276  -4.4275
     1.0362   1.1214   1.2835   1.2835   1.3049   1.3050   1.3944   1.3944
     1.4612   1.4613   2.2057   2.5209   3.2655   3.2656   3.8733   3.9493
     3.9494   4.3791   4.3792   4.4259   4.7112   5.0094   5.0095   5.0266
     5.1053   5.1055   5.3216   5.7991   5.7992   6.0507   6.0510   6.5651
     6.6171   6.6681   6.6681   6.8525   6.8525   6.8662   6.9542   6.9542
     7.0675   7.2193   7.2747   7.2749   7.7091   7.7092   8.3952   9.2182
     9.2185   9.4116   9.4117   9.6929  10.0119  10.0122  10.3350  10.4432
    12.6315  12.6316  12.6793  13.1309  13.5987  13.6359  13.6360  13.9488
    14.5763  14.5763  15.1559  15.1559  15.2713  16.4346  16.4346  16.6534
    16.6534  16.9352  17.1327  17.2834  17.2834  17.6377  17.6377  17.6604
    18.0244  18.1310  18.1310  18.4040  18.4040  19.2252  19.3357  19.3357

          k = 0.4619 0.3266-0.8000 ( 13128 PWs)   bands (ev):

  -106.7957-106.7957 -64.8841 -64.8838 -64.8836 -64.8823 -55.1063 -55.1061
   -55.1056 -55.1046 -55.1044 -55.1037 -36.2847 -36.2787 -36.2782 -36.2776
   -36.2738 -36.2738 -36.2728 -36.2725 -36.2725 -36.2716 -36.2708 -36.2706
    -5.8605  -5.0638  -4.5720  -4.5054  -4.5053  -4.4394  -4.4393  -4.4300
     1.1426   1.2112   1.2817   1.2817   1.3444   1.3445   1.3703   1.3704
     1.4736   1.4736   1.7457   2.2563   2.9129   2.9130   3.1171   4.0990
     4.0990   4.4374   4.4374   4.9279   5.0762   5.0826   5.0828   5.3467
     5.3995   5.3995   5.7258   5.7258   6.1128   6.1130   6.2144   6.4316
     6.6008   6.6009   6.6122   6.7964   6.7968   6.8665   6.9508   6.9510
     6.9632   6.9721   6.9722   7.4334   7.8939   7.8939   8.4209   9.5215
     9.5217   9.7257   9.7258   9.8518   9.9030  10.0533  10.0536  10.0844
    11.8257  11.8970  11.8971  12.7887  13.0452  13.2066  13.2066  14.1058
    14.3714  14.3714  15.2515  15.2516  15.4529  15.4529  15.5673  16.2073
    16.2073  16.2609  16.6983  16.6983  18.3409  18.6449  19.0230  19.0231
    19.1020  19.1589  19.1590  19.2377  19.5816  19.6422  19.6422  20.1130

          k = 0.1155 0.0816 0.2000 ( 13128 PWs)   bands (ev):

  -106.7957-106.7957 -64.8841 -64.8838 -64.8836 -64.8823 -55.1063 -55.1061
   -55.1056 -55.1046 -55.1044 -55.1037 -36.2847 -36.2787 -36.2782 -36.2776
   -36.2738 -36.2738 -36.2728 -36.2725 -36.2725 -36.2716 -36.2708 -36.2706
    -5.8605  -5.0638  -4.5720  -4.5054  -4.5053  -4.4394  -4.4393  -4.4300
     1.1426   1.2112   1.2817   1.2817   1.3444   1.3445   1.3703   1.3704
     1.4736   1.4736   1.7457   2.2563   2.9129   2.9130   3.1171   4.0990
     4.0990   4.4374   4.4374   4.9279   5.0762   5.0826   5.0828   5.3467
     5.3995   5.3995   5.7258   5.7258   6.1128   6.1130   6.2144   6.4316
     6.6008   6.6009   6.6122   6.7964   6.7968   6.8665   6.9508   6.9510
     6.9632   6.9721   6.9722   7.4334   7.8939   7.8939   8.4209   9.5215
     9.5217   9.7257   9.7258   9.8518   9.9030  10.0533  10.0536  10.0844
    11.8257  11.8970  11.8971  12.7887  13.0452  13.2066  13.2066  14.1058
    14.3714  14.3714  15.2515  15.2516  15.4529  15.4529  15.5673  16.2073
    16.2073  16.2609  16.6983  16.6983  18.3409  18.6449  19.0230  19.0231
    19.1020  19.1589  19.1590  19.2377  19.5816  19.6422  19.6422  20.1130

          k = 0.2309 0.1633 0.0000 ( 13047 PWs)   bands (ev):

  -106.7957-106.7957 -64.8840 -64.8838 -64.8836 -64.8823 -55.1047 -55.1046
   -55.1040 -55.1038 -55.1031 -55.1031 -36.2845 -36.2787 -36.2782 -36.2775
   -36.2739 -36.2736 -36.2727 -36.2726 -36.2725 -36.2716 -36.2709 -36.2707
    -5.8363  -5.0779  -4.5434  -4.5433  -4.5265  -4.5019  -4.4016  -4.4015
     1.1489   1.1662   1.2921   1.2921   1.3152   1.3152   1.3623   1.3704
     1.4716   1.4720   1.8666   2.3060   3.0350   3.0351   3.0741   4.0523
     4.1669   4.4027   4.4453   4.8607   5.0186   5.0189   5.1411   5.3224
     5.3224   5.4312   5.6585   5.6586   5.8762   6.0690   6.2770   6.2770
     6.7288   6.7334   6.7338   6.7911   6.8243   6.8870   6.8877   6.8988
     6.9502   7.0586   7.0591   7.2130   7.8910   7.8911   8.3170   9.4678
     9.5108   9.5111   9.7533   9.7536  10.0074  10.0629  10.1557  10.2267
    11.9244  12.0705  12.0706  12.8592  13.2172  13.2173  13.4230  13.8986
    14.5918  14.5918  15.0128  15.2543  15.4635  15.6345  15.6346  16.2323
    16.3281  16.4237  16.4237  16.4302  18.2037  18.6712  18.6956  18.7212
    18.7213  19.0847  19.1174  19.1174  19.4590  19.4801  19.9048  20.1531

          k = 0.3464 0.2449-0.2000 ( 13041 PWs)   bands (ev):

  -106.7957-106.7957 -64.8840 -64.8838 -64.8836 -64.8823 -55.1046 -55.1042
   -55.1042 -55.1036 -55.1035 -55.1030 -36.2834 -36.2794 -36.2778 -36.2771
   -36.2740 -36.2734 -36.2732 -36.2730 -36.2725 -36.2719 -36.2711 -36.2707
    -5.6957  -5.2023  -4.6537  -4.5579  -4.5315  -4.4669  -4.4038  -4.3897
     1.0501   1.1011   1.2664   1.2843   1.3032   1.3110   1.3874   1.3939
     1.4600   1.4604   2.2555   2.5522   3.3063   3.3480   3.6545   4.0261
     4.1001   4.1602   4.3797   4.4848   4.7441   4.9547   5.0148   5.1089
     5.1569   5.2443   5.4050   5.6266   5.7435   5.8867   6.2629   6.2720
     6.3891   6.7537   6.7594   6.8009   6.8703   6.8896   6.9857   7.0284
     7.0816   7.1017   7.2060   7.2857   7.7729   7.8125   8.3322   9.0456
     9.2176   9.2980   9.5465   9.5632   9.7919  10.0055  10.6927  10.7329
    12.5699  12.7697  12.7915  13.2717  13.4726  13.8846  14.0478  14.2430
    14.3762  14.5503  14.7738  15.3480  15.4853  16.0765  16.1357  16.3966
    16.4796  16.6112  16.9283  17.0274  17.2089  17.3064  17.5265  17.8347
    17.9748  18.1831  18.3849  18.5199  18.6977  18.9565  19.3653  19.4607

          k = 0.4619 0.3266-0.4000 ( 13046 PWs)   bands (ev):

  -106.7957-106.7957 -64.8840 -64.8839 -64.8836 -64.8823 -55.1049 -55.1046
   -55.1038 -55.1037 -55.1034 -55.1031 -36.2827 -36.2799 -36.2775 -36.2770
   -36.2741 -36.2736 -36.2730 -36.2729 -36.2728 -36.2722 -36.2712 -36.2707
    -5.6061  -5.2888  -4.7121  -4.5410  -4.5147  -4.4505  -4.4081  -4.4061
     1.0134   1.0949   1.2511   1.2622   1.3037   1.3309   1.4038   1.4039
     1.4518   1.4532   2.4944   2.6051   3.4144   3.5599   3.7562   3.9682
     4.1284   4.2063   4.3535   4.3746   4.5691   4.7770   4.9428   4.9818
     5.1087   5.2057   5.2669   5.5924   5.7117   6.0305   6.0441   6.2742
     6.4125   6.6381   6.7662   6.7994   6.8594   6.9012   6.9922   7.1148
     7.1225   7.1988   7.3765   7.4181   7.5361   7.7365   8.4782   9.0357
     9.1295   9.1556   9.3537   9.5447   9.6064   9.9650  10.7768  10.9239
    12.8626  13.2825  13.3088  13.5372  13.7566  13.8166  13.9309  14.0430
    14.6078  14.8221  15.0633  15.1271  15.4039  16.0700  16.2796  16.2831
    16.4121  16.6823  16.8388  17.1713  17.2169  17.2493  17.3791  17.6049
    17.8406  17.8554  18.0249  18.1764  18.5908  18.6725  18.9813  19.0341

          k = 0.5774 0.4082-0.6000 ( 13111 PWs)   bands (ev):

  -106.7957-106.7957 -64.8840 -64.8839 -64.8836 -64.8823 -55.1059 -55.1054
   -55.1049 -55.1046 -55.1045 -55.1040 -36.2838 -36.2792 -36.2778 -36.2773
   -36.2739 -36.2735 -36.2735 -36.2727 -36.2725 -36.2719 -36.2709 -36.2706
    -5.7549  -5.1515  -4.6574  -4.5142  -4.5004  -4.4539  -4.4469  -4.3960
     1.0608   1.1439   1.2606   1.2759   1.3029   1.3549   1.3813   1.3840
     1.4646   1.4658   2.0696   2.4691   3.0773   3.3054   3.5035   4.0374
     4.0918   4.1989   4.3947   4.5691   4.8434   5.0329   5.0341   5.2493
     5.3123   5.3768   5.3964   5.5898   5.8005   6.2199   6.2203   6.3376
     6.4415   6.5423   6.7237   6.7363   6.8503   6.8996   6.9149   7.0613
     7.0709   7.1136   7.1345   7.2812   7.7668   7.8668   8.4182   9.3270
     9.3624   9.3657   9.5530   9.6548   9.7527   9.9638  10.4191  10.6123
    12.2993  12.3976  12.4651  13.2364  13.4939  13.6345  13.8636  13.9416
    14.5084  14.6334  14.6960  15.0871  15.2535  15.6193  16.1787  16.3755
    16.4575  16.7483  16.8444  17.1490  17.5949  17.7008  18.0692  18.1211
    18.2112  18.5204  18.7772  18.9321  19.1636  19.4005  19.5743  19.7389

          k = 0.2309 0.1633 0.4000 ( 13067 PWs)   bands (ev):

  -106.7957-106.7957 -64.8840 -64.8839 -64.8836 -64.8823 -55.1050 -55.1048
   -55.1044 -55.1040 -55.1038 -55.1035 -36.2835 -36.2791 -36.2779 -36.2772
   -36.2739 -36.2735 -36.2733 -36.2729 -36.2728 -36.2718 -36.2711 -36.2706
    -5.6982  -5.2252  -4.6302  -4.5204  -4.5203  -4.4454  -4.4276  -4.4275
     1.0362   1.1214   1.2835   1.2835   1.3049   1.3050   1.3944   1.3944
     1.4612   1.4613   2.2057   2.5209   3.2655   3.2656   3.8733   3.9493
     3.9494   4.3791   4.3792   4.4259   4.7112   5.0094   5.0095   5.0266
     5.1053   5.1055   5.3216   5.7991   5.7992   6.0507   6.0510   6.5651
     6.6171   6.6681   6.6681   6.8525   6.8525   6.8662   6.9542   6.9542
     7.0675   7.2193   7.2747   7.2749   7.7091   7.7092   8.3952   9.2182
     9.2185   9.4116   9.4117   9.6929  10.0119  10.0122  10.3350  10.4432
    12.6315  12.6316  12.6793  13.1309  13.5987  13.6359  13.6360  13.9488
    14.5763  14.5763  15.1559  15.1559  15.2713  16.4346  16.4346  16.6534
    16.6534  16.9352  17.1327  17.2834  17.2834  17.6377  17.6377  17.6604
    18.0244  18.1310  18.1310  18.4040  18.4040  19.2252  19.3357  19.3357

          k = 0.3464 0.2449 0.2000 ( 13041 PWs)   bands (ev):

  -106.7957-106.7957 -64.8840 -64.8838 -64.8836 -64.8823 -55.1046 -55.1042
   -55.1042 -55.1036 -55.1035 -55.1030 -36.2834 -36.2794 -36.2778 -36.2771
   -36.2740 -36.2734 -36.2732 -36.2730 -36.2725 -36.2719 -36.2711 -36.2707
    -5.6957  -5.2023  -4.6537  -4.5579  -4.5315  -4.4669  -4.4038  -4.3897
     1.0501   1.1011   1.2664   1.2843   1.3032   1.3110   1.3874   1.3939
     1.4600   1.4604   2.2555   2.5522   3.3063   3.3480   3.6545   4.0261
     4.1001   4.1602   4.3797   4.4848   4.7441   4.9547   5.0148   5.1089
     5.1569   5.2443   5.4050   5.6266   5.7435   5.8867   6.2629   6.2720
     6.3891   6.7537   6.7594   6.8009   6.8703   6.8896   6.9857   7.0284
     7.0816   7.1017   7.2060   7.2857   7.7729   7.8125   8.3322   9.0456
     9.2176   9.2980   9.5465   9.5632   9.7919  10.0055  10.6927  10.7329
    12.5699  12.7697  12.7915  13.2717  13.4726  13.8846  14.0478  14.2430
    14.3762  14.5503  14.7738  15.3480  15.4853  16.0765  16.1357  16.3966
    16.4796  16.6112  16.9283  17.0274  17.2089  17.3064  17.5265  17.8347
    17.9748  18.1831  18.3849  18.5199  18.6977  18.9565  19.3653  19.4607

          k = 0.4619 0.3266 0.0000 ( 13019 PWs)   bands (ev):

  -106.7957-106.7957 -64.8840 -64.8838 -64.8836 -64.8823 -55.1042 -55.1042
   -55.1038 -55.1031 -55.1030 -55.1029 -36.2825 -36.2801 -36.2775 -36.2766
   -36.2741 -36.2735 -36.2732 -36.2732 -36.2728 -36.2718 -36.2714 -36.2708
    -5.5892  -5.2917  -4.5856  -4.5855  -4.5820  -4.5789  -4.3631  -4.3630
     1.0519   1.0519   1.2376   1.2376   1.3222   1.3223   1.4004   1.4104
     1.4464   1.4493   2.5415   2.6973   3.5878   3.5880   3.6280   3.9478
     4.2246   4.2616   4.3746   4.4531   4.7898   4.7981   4.7983   4.8421
     4.8422   5.2447   5.2823   5.4739   5.7082   5.7084   6.1082   6.1085
     6.6995   6.7438   6.7608   6.7609   6.8676   6.8684   6.9702   6.9813
     7.1822   7.2948   7.3874   7.3876   7.7332   7.7332   8.1573   8.6241
     8.9684   8.9689   9.6306   9.6311   9.9598   9.9695  10.9657  11.1285
    12.8590  13.1322  13.4380  13.4380  13.9498  13.9611  13.9612  14.1389
    15.0480  15.0481  15.1345  15.7783  16.0311  16.0312  16.0451  16.2194
    16.2571  16.3783  16.3784  16.8215  16.8216  17.0104  17.1030  17.2703
    17.3819  17.9063  18.0397  18.1965  18.3689  18.3689  19.0182  19.0182

          k = 0.5774 0.4082-0.2000 ( 13050 PWs)   bands (ev):

  -106.7957-106.7957 -64.8840 -64.8838 -64.8836 -64.8823 -55.1053 -55.1043
   -55.1041 -55.1035 -55.1035 -55.1033 -36.2813 -36.2812 -36.2773 -36.2765
   -36.2742 -36.2737 -36.2732 -36.2728 -36.2728 -36.2722 -36.2715 -36.2708
    -5.4736  -5.3981  -4.7137  -4.5783  -4.5702  -4.4654  -4.3842  -4.3712
     1.0162   1.0545   1.2322   1.2637   1.2980   1.3302   1.4225   1.4243
     1.4321   1.4372   2.7247   2.7503   3.5492   3.6610   3.8766   3.9187
     4.1388   4.3096   4.3232   4.4321   4.4505   4.6675   4.7805   4.8667
     4.9889   5.1907   5.2326   5.4540   5.6627   5.8814   6.0849   6.0963
     6.2567   6.6721   6.8156   6.8334   6.8617   6.9600   7.0054   7.0578
     7.1987   7.2279   7.4994   7.5186   7.5674   7.6560   8.4785   8.5629
     8.9448   8.9852   9.3388   9.5028   9.7571   9.9631  11.1128  11.2866
    13.0796  13.4576  13.6436  13.9130  14.0703  14.2564  14.2748  14.3921
    14.8153  15.0125  15.2188  15.4045  15.4711  15.7155  15.7961  15.7966
    15.8940  16.3183  16.6621  16.9380  17.0433  17.1424  17.3232  17.4580
    17.5415  17.6895  17.7741  18.2549  18.3659  18.3868  18.6211  18.7636

          k = 0.6928 0.4899-0.4000 ( 13046 PWs)   bands (ev):

  -106.7957-106.7957 -64.8840 -64.8839 -64.8836 -64.8823 -55.1049 -55.1046
   -55.1038 -55.1037 -55.1034 -55.1031 -36.2827 -36.2799 -36.2775 -36.2770
   -36.2741 -36.2736 -36.2730 -36.2729 -36.2728 -36.2722 -36.2712 -36.2707
    -5.6061  -5.2888  -4.7121  -4.5410  -4.5147  -4.4505  -4.4081  -4.4061
     1.0134   1.0949   1.2511   1.2622   1.3037   1.3309   1.4038   1.4039
     1.4518   1.4532   2.4944   2.6051   3.4144   3.5599   3.7562   3.9682
     4.1284   4.2063   4.3535   4.3746   4.5691   4.7770   4.9428   4.9818
     5.1087   5.2057   5.2669   5.5924   5.7117   6.0305   6.0441   6.2742
     6.4125   6.6381   6.7662   6.7994   6.8594   6.9012   6.9922   7.1148
     7.1225   7.1988   7.3765   7.4181   7.5361   7.7365   8.4782   9.0357
     9.1295   9.1556   9.3537   9.5447   9.6064   9.9650  10.7768  10.9239
    12.8626  13.2825  13.3088  13.5372  13.7566  13.8166  13.9309  14.0430
    14.6078  14.8221  15.0633  15.1271  15.4039  16.0700  16.2796  16.2831
    16.4121  16.6823  16.8388  17.1713  17.2169  17.2493  17.3791  17.6049
    17.8406  17.8554  18.0249  18.1764  18.5908  18.6725  18.9813  19.0341

          k = 0.3464 0.2449 0.6000 ( 13067 PWs)   bands (ev):

  -106.7957-106.7957 -64.8840 -64.8839 -64.8836 -64.8823 -55.1050 -55.1048
   -55.1044 -55.1040 -55.1038 -55.1035 -36.2835 -36.2791 -36.2779 -36.2772
   -36.2739 -36.2735 -36.2733 -36.2729 -36.2728 -36.2718 -36.2711 -36.2706
    -5.6982  -5.2252  -4.6302  -4.5204  -4.5203  -4.4454  -4.4276  -4.4275
     1.0362   1.1214   1.2835   1.2835   1.3049   1.3050   1.3944   1.3944
     1.4612   1.4613   2.2057   2.5209   3.2655   3.2656   3.8733   3.9493
     3.9494   4.3791   4.3792   4.4259   4.7112   5.0094   5.0095   5.0266
     5.1053   5.1055   5.3216   5.7991   5.7992   6.0507   6.0510   6.5651
     6.6171   6.6681   6.6681   6.8525   6.8525   6.8662   6.9542   6.9542
     7.0675   7.2193   7.2747   7.2749   7.7091   7.7092   8.3952   9.2182
     9.2185   9.4116   9.4117   9.6929  10.0119  10.0122  10.3350  10.4432
    12.6315  12.6316  12.6793  13.1309  13.5987  13.6359  13.6360  13.9488
    14.5763  14.5763  15.1559  15.1559  15.2713  16.4346  16.4346  16.6534
    16.6534  16.9352  17.1327  17.2834  17.2834  17.6377  17.6377  17.6604
    18.0244  18.1310  18.1310  18.4040  18.4040  19.2252  19.3357  19.3357

          k = 0.4619 0.3266 0.4000 ( 13046 PWs)   bands (ev):

  -106.7957-106.7957 -64.8840 -64.8839 -64.8836 -64.8823 -55.1049 -55.1046
   -55.1038 -55.1037 -55.1034 -55.1031 -36.2827 -36.2799 -36.2775 -36.2770
   -36.2741 -36.2736 -36.2730 -36.2729 -36.2728 -36.2722 -36.2712 -36.2707
    -5.6061  -5.2888  -4.7121  -4.5410  -4.5147  -4.4505  -4.4081  -4.4061
     1.0134   1.0949   1.2511   1.2622   1.3037   1.3309   1.4038   1.4039
     1.4518   1.4532   2.4944   2.6051   3.4144   3.5599   3.7562   3.9682
     4.1284   4.2063   4.3535   4.3746   4.5691   4.7770   4.9428   4.9818
     5.1087   5.2057   5.2669   5.5924   5.7117   6.0305   6.0441   6.2742
     6.4125   6.6381   6.7662   6.7994   6.8594   6.9012   6.9922   7.1148
     7.1225   7.1988   7.3765   7.4181   7.5361   7.7365   8.4782   9.0357
     9.1295   9.1556   9.3537   9.5447   9.6064   9.9650  10.7768  10.9239
    12.8626  13.2825  13.3088  13.5372  13.7566  13.8166  13.9309  14.0430
    14.6078  14.8221  15.0633  15.1271  15.4039  16.0700  16.2796  16.2831
    16.4121  16.6823  16.8388  17.1713  17.2169  17.2493  17.3791  17.6049
    17.8406  17.8554  18.0249  18.1764  18.5908  18.6725  18.9813  19.0341

          k = 0.5774 0.4082 0.2000 ( 13050 PWs)   bands (ev):

  -106.7957-106.7957 -64.8840 -64.8838 -64.8836 -64.8823 -55.1053 -55.1043
   -55.1041 -55.1035 -55.1035 -55.1033 -36.2813 -36.2812 -36.2773 -36.2765
   -36.2742 -36.2737 -36.2732 -36.2728 -36.2728 -36.2722 -36.2715 -36.2708
    -5.4736  -5.3981  -4.7137  -4.5783  -4.5702  -4.4654  -4.3842  -4.3712
     1.0162   1.0545   1.2322   1.2637   1.2980   1.3302   1.4225   1.4243
     1.4321   1.4372   2.7247   2.7503   3.5492   3.6610   3.8766   3.9187
     4.1388   4.3096   4.3232   4.4321   4.4505   4.6675   4.7805   4.8667
     4.9889   5.1907   5.2326   5.4540   5.6627   5.8814   6.0849   6.0963
     6.2567   6.6721   6.8156   6.8334   6.8617   6.9600   7.0054   7.0578
     7.1987   7.2279   7.4994   7.5186   7.5674   7.6560   8.4785   8.5629
     8.9448   8.9852   9.3388   9.5028   9.7571   9.9631  11.1128  11.2866
    13.0796  13.4576  13.6436  13.9130  14.0703  14.2564  14.2748  14.3921
    14.8153  15.0125  15.2188  15.4045  15.4711  15.7155  15.7961  15.7966
    15.8940  16.3183  16.6621  16.9380  17.0433  17.1424  17.3232  17.4580
    17.5415  17.6895  17.7741  18.2549  18.3659  18.3868  18.6211  18.7636

          k = 0.6928 0.4899 0.0000 ( 13019 PWs)   bands (ev):

  -106.7957-106.7957 -64.8840 -64.8838 -64.8836 -64.8823 -55.1042 -55.1042
   -55.1038 -55.1031 -55.1030 -55.1029 -36.2825 -36.2801 -36.2775 -36.2766
   -36.2741 -36.2735 -36.2732 -36.2732 -36.2728 -36.2718 -36.2714 -36.2708
    -5.5892  -5.2917  -4.5856  -4.5855  -4.5820  -4.5789  -4.3631  -4.3630
     1.0519   1.0519   1.2376   1.2376   1.3222   1.3223   1.4004   1.4104
     1.4464   1.4493   2.5415   2.6973   3.5878   3.5880   3.6280   3.9478
     4.2246   4.2616   4.3746   4.4531   4.7898   4.7981   4.7983   4.8421
     4.8422   5.2447   5.2823   5.4739   5.7082   5.7084   6.1082   6.1085
     6.6995   6.7438   6.7608   6.7609   6.8676   6.8684   6.9702   6.9813
     7.1822   7.2948   7.3874   7.3876   7.7332   7.7332   8.1573   8.6241
     8.9684   8.9689   9.6306   9.6311   9.9598   9.9695  10.9657  11.1285
    12.8590  13.1322  13.4380  13.4380  13.9498  13.9611  13.9612  14.1389
    15.0480  15.0481  15.1345  15.7783  16.0311  16.0312  16.0451  16.2194
    16.2571  16.3783  16.3784  16.8215  16.8216  17.0104  17.1030  17.2703
    17.3819  17.9063  18.0397  18.1965  18.3689  18.3689  19.0182  19.0182

          k = 0.8083 0.5715-0.2000 ( 13041 PWs)   bands (ev):

  -106.7957-106.7957 -64.8840 -64.8838 -64.8836 -64.8823 -55.1046 -55.1042
   -55.1042 -55.1036 -55.1035 -55.1030 -36.2834 -36.2794 -36.2778 -36.2771
   -36.2740 -36.2734 -36.2732 -36.2730 -36.2725 -36.2719 -36.2711 -36.2707
    -5.6957  -5.2023  -4.6537  -4.5579  -4.5315  -4.4669  -4.4038  -4.3897
     1.0501   1.1011   1.2664   1.2843   1.3032   1.3110   1.3874   1.3939
     1.4600   1.4604   2.2555   2.5522   3.3063   3.3480   3.6545   4.0261
     4.1001   4.1602   4.3797   4.4848   4.7441   4.9547   5.0148   5.1089
     5.1569   5.2443   5.4050   5.6266   5.7435   5.8867   6.2629   6.2720
     6.3891   6.7537   6.7594   6.8009   6.8703   6.8896   6.9857   7.0284
     7.0816   7.1017   7.2060   7.2857   7.7729   7.8125   8.3322   9.0456
     9.2176   9.2980   9.5465   9.5632   9.7919  10.0055  10.6927  10.7329
    12.5699  12.7697  12.7915  13.2717  13.4726  13.8846  14.0478  14.2430
    14.3762  14.5503  14.7738  15.3480  15.4853  16.0765  16.1357  16.3966
    16.4796  16.6112  16.9283  17.0274  17.2089  17.3064  17.5265  17.8347
    17.9748  18.1831  18.3849  18.5199  18.6977  18.9565  19.3653  19.4607

          k = 0.4619 0.3266 0.8000 ( 13128 PWs)   bands (ev):

  -106.7957-106.7957 -64.8841 -64.8838 -64.8836 -64.8823 -55.1063 -55.1061
   -55.1056 -55.1046 -55.1044 -55.1037 -36.2847 -36.2787 -36.2782 -36.2776
   -36.2738 -36.2738 -36.2728 -36.2725 -36.2725 -36.2716 -36.2708 -36.2706
    -5.8605  -5.0638  -4.5720  -4.5054  -4.5053  -4.4394  -4.4393  -4.4300
     1.1426   1.2112   1.2817   1.2817   1.3444   1.3445   1.3703   1.3704
     1.4736   1.4736   1.7457   2.2563   2.9129   2.9130   3.1171   4.0990
     4.0990   4.4374   4.4374   4.9279   5.0762   5.0826   5.0828   5.3467
     5.3995   5.3995   5.7258   5.7258   6.1128   6.1130   6.2144   6.4316
     6.6008   6.6009   6.6122   6.7964   6.7968   6.8665   6.9508   6.9510
     6.9632   6.9721   6.9722   7.4334   7.8939   7.8939   8.4209   9.5215
     9.5217   9.7257   9.7258   9.8518   9.9030  10.0533  10.0536  10.0844
    11.8257  11.8970  11.8971  12.7887  13.0452  13.2066  13.2066  14.1058
    14.3714  14.3714  15.2515  15.2516  15.4529  15.4529  15.5673  16.2073
    16.2073  16.2609  16.6983  16.6983  18.3409  18.6449  19.0230  19.0231
    19.1020  19.1589  19.1590  19.2377  19.5816  19.6422  19.6422  20.1130

          k = 0.5774 0.4082 0.6000 ( 13111 PWs)   bands (ev):

  -106.7957-106.7957 -64.8840 -64.8839 -64.8836 -64.8823 -55.1059 -55.1054
   -55.1049 -55.1046 -55.1045 -55.1040 -36.2838 -36.2792 -36.2778 -36.2773
   -36.2739 -36.2735 -36.2735 -36.2727 -36.2725 -36.2719 -36.2709 -36.2706
    -5.7549  -5.1515  -4.6574  -4.5142  -4.5004  -4.4539  -4.4469  -4.3960
     1.0608   1.1439   1.2606   1.2759   1.3029   1.3549   1.3813   1.3840
     1.4646   1.4658   2.0696   2.4691   3.0773   3.3054   3.5035   4.0374
     4.0918   4.1989   4.3947   4.5691   4.8434   5.0329   5.0341   5.2493
     5.3123   5.3768   5.3964   5.5898   5.8005   6.2199   6.2203   6.3376
     6.4415   6.5423   6.7237   6.7363   6.8503   6.8996   6.9149   7.0613
     7.0709   7.1136   7.1345   7.2812   7.7668   7.8668   8.4182   9.3270
     9.3624   9.3657   9.5530   9.6548   9.7527   9.9638  10.4191  10.6123
    12.2993  12.3976  12.4651  13.2364  13.4939  13.6345  13.8636  13.9416
    14.5084  14.6334  14.6960  15.0871  15.2535  15.6193  16.1787  16.3755
    16.4575  16.7483  16.8444  17.1490  17.5949  17.7008  18.0692  18.1211
    18.2112  18.5204  18.7772  18.9321  19.1636  19.4005  19.5743  19.7389

          k = 0.6928 0.4899 0.4000 ( 13046 PWs)   bands (ev):

  -106.7957-106.7957 -64.8840 -64.8839 -64.8836 -64.8823 -55.1049 -55.1046
   -55.1038 -55.1037 -55.1034 -55.1031 -36.2827 -36.2799 -36.2775 -36.2770
   -36.2741 -36.2736 -36.2730 -36.2729 -36.2728 -36.2722 -36.2712 -36.2707
    -5.6061  -5.2888  -4.7121  -4.5410  -4.5147  -4.4505  -4.4081  -4.4061
     1.0134   1.0949   1.2511   1.2622   1.3037   1.3309   1.4038   1.4039
     1.4518   1.4532   2.4944   2.6051   3.4144   3.5599   3.7562   3.9682
     4.1284   4.2063   4.3535   4.3746   4.5691   4.7770   4.9428   4.9818
     5.1087   5.2057   5.2669   5.5924   5.7117   6.0305   6.0441   6.2742
     6.4125   6.6381   6.7662   6.7994   6.8594   6.9012   6.9922   7.1148
     7.1225   7.1988   7.3765   7.4181   7.5361   7.7365   8.4782   9.0357
     9.1295   9.1556   9.3537   9.5447   9.6064   9.9650  10.7768  10.9239
    12.8626  13.2825  13.3088  13.5372  13.7566  13.8166  13.9309  14.0430
    14.6078  14.8221  15.0633  15.1271  15.4039  16.0700  16.2796  16.2831
    16.4121  16.6823  16.8388  17.1713  17.2169  17.2493  17.3791  17.6049
    17.8406  17.8554  18.0249  18.1764  18.5908  18.6725  18.9813  19.0341

          k = 0.8083 0.5715 0.2000 ( 13041 PWs)   bands (ev):

  -106.7957-106.7957 -64.8840 -64.8838 -64.8836 -64.8823 -55.1046 -55.1042
   -55.1042 -55.1036 -55.1035 -55.1030 -36.2834 -36.2794 -36.2778 -36.2771
   -36.2740 -36.2734 -36.2732 -36.2730 -36.2725 -36.2719 -36.2711 -36.2707
    -5.6957  -5.2023  -4.6537  -4.5579  -4.5315  -4.4669  -4.4038  -4.3897
     1.0501   1.1011   1.2664   1.2843   1.3032   1.3110   1.3874   1.3939
     1.4600   1.4604   2.2555   2.5522   3.3063   3.3480   3.6545   4.0261
     4.1001   4.1602   4.3797   4.4848   4.7441   4.9547   5.0148   5.1089
     5.1569   5.2443   5.4050   5.6266   5.7435   5.8867   6.2629   6.2720
     6.3891   6.7537   6.7594   6.8009   6.8703   6.8896   6.9857   7.0284
     7.0816   7.1017   7.2060   7.2857   7.7729   7.8125   8.3322   9.0456
     9.2176   9.2980   9.5465   9.5632   9.7919  10.0055  10.6927  10.7329
    12.5699  12.7697  12.7915  13.2717  13.4726  13.8846  14.0478  14.2430
    14.3762  14.5503  14.7738  15.3480  15.4853  16.0765  16.1357  16.3966
    16.4796  16.6112  16.9283  17.0274  17.2089  17.3064  17.5265  17.8347
    17.9748  18.1831  18.3849  18.5199  18.6977  18.9565  19.3653  19.4607

          k = 0.9238 0.6532 0.0000 ( 13047 PWs)   bands (ev):

  -106.7957-106.7957 -64.8840 -64.8838 -64.8836 -64.8823 -55.1047 -55.1046
   -55.1040 -55.1038 -55.1031 -55.1031 -36.2845 -36.2787 -36.2782 -36.2775
   -36.2739 -36.2736 -36.2727 -36.2726 -36.2725 -36.2716 -36.2709 -36.2707
    -5.8363  -5.0779  -4.5434  -4.5433  -4.5265  -4.5019  -4.4016  -4.4015
     1.1489   1.1662   1.2921   1.2921   1.3152   1.3152   1.3623   1.3704
     1.4716   1.4720   1.8666   2.3060   3.0350   3.0351   3.0741   4.0523
     4.1669   4.4027   4.4453   4.8607   5.0186   5.0189   5.1411   5.3224
     5.3224   5.4312   5.6585   5.6586   5.8762   6.0690   6.2770   6.2770
     6.7288   6.7334   6.7338   6.7911   6.8243   6.8870   6.8877   6.8988
     6.9502   7.0586   7.0591   7.2130   7.8910   7.8911   8.3170   9.4678
     9.5108   9.5111   9.7533   9.7536  10.0074  10.0629  10.1557  10.2267
    11.9244  12.0705  12.0706  12.8592  13.2172  13.2173  13.4230  13.8986
    14.5918  14.5918  15.0128  15.2543  15.4635  15.6345  15.6346  16.2323
    16.3281  16.4237  16.4237  16.4302  18.2037  18.6712  18.6956  18.7212
    18.7213  19.0847  19.1174  19.1174  19.4590  19.4801  19.9048  20.1531

 ------ SPIN DOWN ----------


          k = 0.0000 0.0000 0.0000 ( 13107 PWs)   bands (ev):

  -106.8077-106.8077 -62.0196 -62.0193 -62.0190 -62.0177 -55.1177 -55.1176
   -55.1175 -55.1175 -55.1175 -55.1173 -33.3508 -33.3401 -33.3399 -33.3389
   -33.2702 -33.2701 -33.2699 -33.2693 -33.2692 -33.2664 -33.2657 -33.2656
    -6.0145  -5.1540  -4.6545  -4.6544  -4.6544  -4.5946  -4.5945  -4.5945
     1.2874   1.2874   1.2874   1.3488   1.3488   1.3604   1.3604   1.3604
     1.4775   1.4775   1.4939   2.0596   2.9926   2.9926   2.9927   4.1558
     4.1558   5.1685   5.1685   5.5235   5.5235   5.5235   5.8078   5.8079
     5.8080   6.2837   6.2838   6.2838   6.3412   6.3413   6.3413   7.3511
     7.7507   7.7507   7.7507   8.5413   8.8127   8.8127   9.3556   9.3557
     9.3562   9.7831   9.7833   9.7833   9.8510   9.8514   9.8515  10.3626
    11.0157  11.0160  11.0161  11.2357  11.2360  11.2361  11.4149  11.4149
    12.0127  12.0127  12.0129  12.8376  12.8376  12.8376  13.6297  14.6097
    14.6097  14.6097  15.5465  15.5465  16.1813  16.1813  16.1969  16.1969
    16.1969  16.6415  16.6415  16.6415  18.2767  18.7472  19.3446  19.3447
    19.3448  20.2820  20.2820  20.2821  20.2997  20.5239  20.5239  20.8776

          k = 0.1155 0.0816-0.2000 ( 13128 PWs)   bands (ev):

  -106.8077-106.8077 -62.0196 -62.0193 -62.0190 -62.0177 -55.1191 -55.1189
   -55.1184 -55.1174 -55.1173 -55.1166 -33.3500 -33.3408 -33.3400 -33.3389
   -33.2701 -33.2700 -33.2698 -33.2693 -33.2692 -33.2667 -33.2660 -33.2657
    -5.9473  -5.2030  -4.7274  -4.6598  -4.6598  -4.5912  -4.5911  -4.5812
     1.1611   1.2138   1.2825   1.2825   1.3388   1.3388   1.3666   1.3666
     1.4722   1.4723   1.8213   2.2647   3.1441   3.1441   3.3346   4.1692
     4.1692   5.0575   5.0732   5.0733   5.4577   5.4577   5.7258   5.7259
     5.7381   5.8077   6.1857   6.1857   6.3836   6.4135   6.4135   6.6741
     7.6321   7.6321   8.1148   8.8191   8.9760   8.9761   9.4401   9.4406
     9.5136   9.7906   9.7908   9.8365   9.8369   9.8440   9.9603  10.6909
    10.9311  10.9313  10.9952  10.9953  11.0902  11.1167  11.2760  11.2762
    12.1133  12.2303  12.2305  13.1370  13.4380  13.4380  13.6735  14.5206
    14.7290  14.7290  15.6887  15.6888  15.9270  15.9271  16.0065  16.4420
    16.4420  16.6087  16.9268  16.9268  18.6727  18.9357  19.2265  19.3245
    19.3246  19.4309  19.4309  19.6136  19.7364  19.8533  19.8533  20.3686

          k = 0.2309 0.1633-0.4000 ( 13067 PWs)   bands (ev):

  -106.8077-106.8077 -62.0195 -62.0194 -62.0190 -62.0177 -55.1178 -55.1177
   -55.1172 -55.1168 -55.1166 -55.1164 -33.3483 -33.3424 -33.3399 -33.3389
   -33.2701 -33.2699 -33.2692 -33.2691 -33.2690 -33.2675 -33.2665 -33.2657
    -5.7910  -5.3496  -4.7868  -4.6675  -4.6675  -4.5976  -4.5867  -4.5866
     1.0531   1.1204   1.2818   1.2818   1.3053   1.3053   1.3933   1.3933
     1.4593   1.4594   2.2815   2.5551   3.5067   3.5068   4.0889   4.0889
     4.1273   4.6071   4.8772   4.8773   4.9093   5.2816   5.2816   5.4999
     5.6282   5.6283   5.6566   6.0761   6.0761   6.5158   6.6711   6.6712
     7.3735   7.3735   8.6242   8.9687   9.1688   9.1690   9.5632   9.5637
     9.5648   9.8156   9.8156   9.8290   9.8306   9.8308  10.2682  10.6702
    10.6703  10.7435  10.7436  10.9393  10.9817  11.0894  11.1823  11.1825
    12.8239  12.8240  13.0148  13.4240  13.8926  14.0770  14.0771  14.4237
    14.8723  14.8724  15.5048  15.5049  15.7032  16.7917  16.7918  16.8972
    16.8973  17.2414  17.4240  17.4240  17.5799  17.8094  17.9985  17.9986
    18.3611  18.4344  18.4344  18.6444  18.6444  19.4880  19.4881  19.5481

          k = 0.3464 0.2449-0.6000 ( 13067 PWs)   bands (ev):

  -106.8077-106.8077 -62.0195 -62.0194 -62.0190 -62.0177 -55.1178 -55.1177
   -55.1172 -55.1168 -55.1166 -55.1164 -33.3483 -33.3424 -33.3399 -33.3389
   -33.2701 -33.2699 -33.2692 -33.2691 -33.2690 -33.2675 -33.2665 -33.2657
    -5.7910  -5.3496  -4.7868  -4.6675  -4.6675  -4.5976  -4.5867  -4.5866
     1.0531   1.1204   1.2818   1.2818   1.3053   1.3053   1.3933   1.3933
     1.4593   1.4594   2.2815   2.5551   3.5067   3.5068   4.0889   4.0889
     4.1273   4.6071   4.8772   4.8773   4.9093   5.2816   5.2816   5.4999
     5.6282   5.6283   5.6566   6.0761   6.0761   6.5158   6.6711   6.6712
     7.3735   7.3735   8.6242   8.9687   9.1688   9.1690   9.5632   9.5637
     9.5648   9.8156   9.8156   9.8290   9.8306   9.8308  10.2682  10.6702
    10.6703  10.7435  10.7436  10.9393  10.9817  11.0894  11.1823  11.1825
    12.8239  12.8240  13.0148  13.4240  13.8926  14.0770  14.0771  14.4237
    14.8723  14.8724  15.5048  15.5049  15.7032  16.7917  16.7918  16.8972
    16.8973  17.2414  17.4240  17.4240  17.5799  17.8094  17.9985  17.9986
    18.3611  18.4344  18.4344  18.6444  18.6444  19.4880  19.4881  19.5481

          k = 0.4619 0.3266-0.8000 ( 13128 PWs)   bands (ev):

  -106.8077-106.8077 -62.0196 -62.0193 -62.0190 -62.0177 -55.1191 -55.1189
   -55.1184 -55.1174 -55.1173 -55.1166 -33.3500 -33.3408 -33.3400 -33.3389
   -33.2701 -33.2700 -33.2698 -33.2693 -33.2692 -33.2667 -33.2660 -33.2657
    -5.9473  -5.2030  -4.7274  -4.6598  -4.6598  -4.5912  -4.5911  -4.5812
     1.1611   1.2138   1.2825   1.2825   1.3388   1.3388   1.3666   1.3666
     1.4722   1.4723   1.8213   2.2647   3.1441   3.1441   3.3346   4.1692
     4.1692   5.0575   5.0732   5.0733   5.4577   5.4577   5.7258   5.7259
     5.7381   5.8077   6.1857   6.1857   6.3836   6.4135   6.4135   6.6741
     7.6321   7.6321   8.1148   8.8191   8.9760   8.9761   9.4401   9.4406
     9.5136   9.7906   9.7908   9.8365   9.8369   9.8440   9.9603  10.6909
    10.9311  10.9313  10.9952  10.9953  11.0902  11.1167  11.2760  11.2762
    12.1133  12.2303  12.2305  13.1370  13.4380  13.4380  13.6735  14.5206
    14.7290  14.7290  15.6887  15.6888  15.9270  15.9271  16.0065  16.4420
    16.4420  16.6087  16.9268  16.9268  18.6727  18.9357  19.2265  19.3245
    19.3246  19.4309  19.4309  19.6136  19.7364  19.8533  19.8533  20.3686

          k = 0.1155 0.0816 0.2000 ( 13128 PWs)   bands (ev):

  -106.8077-106.8077 -62.0196 -62.0193 -62.0190 -62.0177 -55.1191 -55.1189
   -55.1184 -55.1174 -55.1173 -55.1166 -33.3500 -33.3408 -33.3400 -33.3389
   -33.2701 -33.2700 -33.2698 -33.2693 -33.2692 -33.2667 -33.2660 -33.2657
    -5.9473  -5.2030  -4.7274  -4.6598  -4.6598  -4.5912  -4.5911  -4.5812
     1.1611   1.2138   1.2825   1.2825   1.3388   1.3388   1.3666   1.3666
     1.4722   1.4723   1.8213   2.2647   3.1441   3.1441   3.3346   4.1692
     4.1692   5.0575   5.0732   5.0733   5.4577   5.4577   5.7258   5.7259
     5.7381   5.8077   6.1857   6.1857   6.3836   6.4135   6.4135   6.6741
     7.6321   7.6321   8.1148   8.8191   8.9760   8.9761   9.4401   9.4406
     9.5136   9.7906   9.7908   9.8365   9.8369   9.8440   9.9603  10.6909
    10.9311  10.9313  10.9952  10.9953  11.0902  11.1167  11.2760  11.2762
    12.1133  12.2303  12.2305  13.1370  13.4380  13.4380  13.6735  14.5206
    14.7290  14.7290  15.6887  15.6888  15.9270  15.9271  16.0065  16.4420
    16.4420  16.6087  16.9268  16.9268  18.6727  18.9357  19.2265  19.3245
    19.3246  19.4309  19.4309  19.6136  19.7364  19.8533  19.8533  20.3686

          k = 0.2309 0.1633 0.0000 ( 13047 PWs)   bands (ev):

  -106.8077-106.8077 -62.0196 -62.0193 -62.0190 -62.0177 -55.1176 -55.1175
   -55.1167 -55.1165 -55.1160 -55.1160 -33.3498 -33.3408 -33.3401 -33.3390
   -33.2702 -33.2700 -33.2697 -33.2692 -33.2690 -33.2667 -33.2660 -33.2659
    -5.9241  -5.2151  -4.6959  -4.6959  -4.6865  -4.6484  -4.5551  -4.5551
     1.1658   1.1702   1.2871   1.2871   1.3177   1.3177   1.3615   1.3667
     1.4701   1.4705   1.9356   2.3269   3.2661   3.2662   3.2754   4.1651
     4.2246   4.9260   5.0566   5.0966   5.3699   5.3699   5.6520   5.6521
     5.8142   5.8273   6.1495   6.2684   6.2685   6.3461   6.3461   6.6436
     7.4475   7.4476   8.3570   8.9322   8.9926   9.0758   9.3829   9.5513
     9.5519   9.8042   9.8049   9.8536   9.8580   9.8959   9.8964  10.6397
    10.8632  10.8637  10.9467  11.0679  11.0684  11.0866  11.1707  11.3067
    12.3270  12.3738  12.3738  13.1803  13.4673  13.4673  13.9712  14.4228
    14.8678  14.8678  15.5425  15.7682  15.9794  16.0690  16.0691  16.4538
    16.4636  16.5638  16.7567  16.7567  18.5709  18.9436  19.0223  19.0224
    19.0676  19.1465  19.3837  19.3837  19.5939  19.6782  20.1242  20.2692

          k = 0.3464 0.2449-0.2000 ( 13041 PWs)   bands (ev):

  -106.8077-106.8077 -62.0195 -62.0193 -62.0190 -62.0177 -55.1175 -55.1171
   -55.1169 -55.1164 -55.1163 -55.1159 -33.3482 -33.3424 -33.3400 -33.3390
   -33.2701 -33.2698 -33.2693 -33.2691 -33.2687 -33.2673 -33.2665 -33.2659
    -5.7890  -5.3270  -4.8040  -4.7073  -4.6822  -4.6254  -4.5582  -4.5464
     1.0659   1.1022   1.2646   1.2839   1.3008   1.3125   1.3874   1.3915
     1.4581   1.4586   2.3353   2.6013   3.5103   3.5874   3.8638   4.2199
     4.2328   4.3749   4.8228   4.9085   5.0286   5.2749   5.4221   5.4989
     5.6574   5.6931   5.7616   6.0295   6.1483   6.3642   6.4948   6.5472
     7.1471   7.2214   8.7251   9.1227   9.2160   9.2932   9.4891   9.6383
     9.6751   9.7700   9.7804   9.8356   9.8395   9.9699  10.1140  10.4669
    10.6430  10.6528  10.7580  10.8701  10.9773  11.1834  11.2117  11.3412
    12.8661  13.0171  13.0558  13.5589  13.8180  14.2854  14.4723  14.5871
    14.7911  14.9593  15.1854  15.7366  15.8343  16.3510  16.5315  16.6968
    16.7357  16.8455  17.1522  17.4273  17.4279  17.6002  17.7959  18.0043
    18.2621  18.5050  18.6241  18.7003  18.9236  19.2233  19.5133  19.6743

          k = 0.4619 0.3266-0.4000 ( 13046 PWs)   bands (ev):

  -106.8077-106.8077 -62.0194 -62.0194 -62.0190 -62.0177 -55.1177 -55.1175
   -55.1167 -55.1166 -55.1163 -55.1158 -33.3472 -33.3435 -33.3399 -33.3389
   -33.2701 -33.2697 -33.2693 -33.2688 -33.2686 -33.2678 -33.2667 -33.2659
    -5.7029  -5.4072  -4.8598  -4.6880  -4.6708  -4.6038  -4.5673  -4.5634
     1.0278   1.0973   1.2526   1.2611   1.3015   1.3276   1.4028   1.4032
     1.4500   1.4510   2.5711   2.6673   3.6601   3.7900   3.9634   4.1392
     4.3252   4.4319   4.6002   4.7879   4.9051   5.0043   5.2273   5.5473
     5.6139   5.6637   5.6729   5.9290   6.0563   6.4207   6.5504   6.7118
     6.8130   7.2364   8.9382   9.1014   9.2491   9.3774   9.6066   9.6198
     9.6990   9.7338   9.7778   9.8333   9.9350   9.9356  10.2326  10.3853
    10.5762  10.5965  10.6826  10.6902  10.8304  11.1050  11.3195  11.4363
    13.1170  13.4578  13.6457  13.8005  14.0207  14.3268  14.3282  14.5531
    14.8940  15.1039  15.4118  15.4442  15.7976  16.3639  16.5527  16.6254
    16.6343  16.9426  17.0943  17.5181  17.5753  17.6258  17.6356  17.8673
    18.0444  18.1890  18.1934  18.4541  18.8306  18.9091  19.1475  19.1767

          k = 0.5774 0.4082-0.6000 ( 13111 PWs)   bands (ev):

  -106.8077-106.8077 -62.0195 -62.0194 -62.0190 -62.0177 -55.1188 -55.1181
   -55.1178 -55.1174 -55.1174 -55.1168 -33.3488 -33.3420 -33.3399 -33.3389
   -33.2700 -33.2697 -33.2694 -33.2693 -33.2690 -33.2672 -33.2662 -33.2658
    -5.8457  -5.2812  -4.8069  -4.6702  -4.6460  -4.6076  -4.6073  -4.5502
     1.0782   1.1431   1.2624   1.2756   1.3034   1.3473   1.3810   1.3813
     1.4632   1.4639   2.1518   2.4984   3.3083   3.5366   3.7108   4.1739
     4.2074   4.4372   4.9523   5.0389   5.1569   5.3977   5.5198   5.6342
     5.6502   5.7695   5.8920   5.9895   6.2031   6.3739   6.5439   6.5498
     7.0710   7.5491   8.5413   9.0593   9.1309   9.2160   9.4537   9.5605
     9.7111   9.7115   9.7897   9.8442   9.8471   9.9062  10.1061  10.7150
    10.7354  10.7555  10.8018  10.8074  10.9509  11.1388  11.2128  11.2822
    12.5770  12.6509  12.7745  13.6655  13.7900  13.8920  14.0240  14.5847
    14.9097  14.9569  15.2144  15.4934  15.6795  15.9771  16.6008  16.6488
    16.7730  16.8158  17.2033  17.3070  17.8708  18.1174  18.2700  18.3562
    18.4967  18.7577  18.9184  19.1719  19.4795  19.6246  19.8202  19.9126

          k = 0.2309 0.1633 0.4000 ( 13067 PWs)   bands (ev):

  -106.8077-106.8077 -62.0195 -62.0194 -62.0190 -62.0177 -55.1178 -55.1177
   -55.1172 -55.1168 -55.1166 -55.1164 -33.3483 -33.3424 -33.3399 -33.3389
   -33.2701 -33.2699 -33.2692 -33.2691 -33.2690 -33.2675 -33.2665 -33.2657
    -5.7910  -5.3496  -4.7868  -4.6675  -4.6675  -4.5976  -4.5867  -4.5866
     1.0531   1.1204   1.2818   1.2818   1.3053   1.3053   1.3933   1.3933
     1.4593   1.4594   2.2815   2.5551   3.5067   3.5068   4.0889   4.0889
     4.1273   4.6071   4.8772   4.8773   4.9093   5.2816   5.2816   5.4999
     5.6282   5.6283   5.6566   6.0761   6.0761   6.5158   6.6711   6.6712
     7.3735   7.3735   8.6242   8.9687   9.1688   9.1690   9.5632   9.5637
     9.5648   9.8156   9.8156   9.8290   9.8306   9.8308  10.2682  10.6702
    10.6703  10.7435  10.7436  10.9393  10.9817  11.0894  11.1823  11.1825
    12.8239  12.8240  13.0148  13.4240  13.8926  14.0770  14.0771  14.4237
    14.8723  14.8724  15.5048  15.5049  15.7032  16.7917  16.7918  16.8972
    16.8973  17.2414  17.4240  17.4240  17.5799  17.8094  17.9985  17.9986
    18.3611  18.4344  18.4344  18.6444  18.6444  19.4880  19.4881  19.5481

          k = 0.3464 0.2449 0.2000 ( 13041 PWs)   bands (ev):

  -106.8077-106.8077 -62.0195 -62.0193 -62.0190 -62.0177 -55.1175 -55.1171
   -55.1169 -55.1164 -55.1163 -55.1159 -33.3482 -33.3424 -33.3400 -33.3390
   -33.2701 -33.2698 -33.2693 -33.2691 -33.2687 -33.2673 -33.2665 -33.2659
    -5.7890  -5.3270  -4.8040  -4.7073  -4.6822  -4.6254  -4.5582  -4.5464
     1.0659   1.1022   1.2646   1.2839   1.3008   1.3125   1.3874   1.3915
     1.4581   1.4586   2.3353   2.6013   3.5103   3.5874   3.8638   4.2199
     4.2328   4.3749   4.8228   4.9085   5.0286   5.2749   5.4221   5.4989
     5.6574   5.6931   5.7616   6.0295   6.1483   6.3642   6.4948   6.5472
     7.1471   7.2214   8.7251   9.1227   9.2160   9.2932   9.4891   9.6383
     9.6751   9.7700   9.7804   9.8356   9.8395   9.9699  10.1140  10.4669
    10.6430  10.6528  10.7580  10.8701  10.9773  11.1834  11.2117  11.3412
    12.8661  13.0171  13.0558  13.5589  13.8180  14.2854  14.4723  14.5871
    14.7911  14.9593  15.1854  15.7366  15.8343  16.3510  16.5315  16.6968
    16.7357  16.8455  17.1522  17.4273  17.4279  17.6002  17.7959  18.0043
    18.2621  18.5050  18.6241  18.7003  18.9236  19.2233  19.5133  19.6743

          k = 0.4619 0.3266 0.0000 ( 13019 PWs)   bands (ev):

  -106.8077-106.8077 -62.0195 -62.0193 -62.0191 -62.0177 -55.1171 -55.1171
   -55.1165 -55.1159 -55.1159 -55.1156 -33.3470 -33.3435 -33.3400 -33.3390
   -33.2702 -33.2696 -33.2693 -33.2690 -33.2684 -33.2673 -33.2668 -33.2663
    -5.6876  -5.4081  -4.7382  -4.7342  -4.7342  -4.7310  -4.5201  -4.5200
     1.0560   1.0635   1.2382   1.2382   1.3214   1.3214   1.4002   1.4079
     1.4446   1.4474   2.6269   2.7755   3.7592   3.8287   3.8289   4.1169
     4.4341   4.4665   4.7563   4.8337   5.0256   5.0827   5.0827   5.2303
     5.2303   5.5382   5.8804   5.9750   6.2442   6.2444   6.5591   6.5591
     6.9685   6.9685   8.8565   9.0666   9.3751   9.5370   9.6198   9.6643
     9.6651   9.7625   9.7632   9.8033   9.8741  10.0961  10.0966  10.1759
    10.4362  10.4367  10.9583  10.9590  11.0649  11.1128  11.2018  11.5035
    13.1816  13.3279  13.7595  13.7596  14.2605  14.2606  14.6964  14.8169
    15.1883  15.1884  15.3299  15.9994  16.4133  16.4134  16.4768  16.4908
    16.6628  16.7353  16.7355  17.0142  17.1018  17.1019  17.3992  17.4558
    17.6938  18.1547  18.2919  18.4573  18.5245  18.5245  19.2325  19.2326

          k = 0.5774 0.4082-0.2000 ( 13050 PWs)   bands (ev):

  -106.8077-106.8077 -62.0195 -62.0193 -62.0191 -62.0177 -55.1182 -55.1172
   -55.1168 -55.1164 -55.1162 -55.1161 -33.3454 -33.3451 -33.3400 -33.3390
   -33.2702 -33.2695 -33.2694 -33.2686 -33.2684 -33.2677 -33.2669 -33.2662
    -5.5776  -5.5074  -4.8600  -4.7262  -4.7252  -4.6216  -4.5407  -4.5291
     1.0262   1.0616   1.2339   1.2617   1.2955   1.3276   1.4212   1.4226
     1.4310   1.4350   2.8189   2.8360   3.7230   3.9094   4.0232   4.1492
     4.3611   4.5249   4.6371   4.6985   4.7171   4.9560   5.0829   5.3208
     5.3576   5.5871   5.8061   5.9454   6.1060   6.3172   6.5540   6.5971
     6.7238   6.9223   9.0678   9.0704   9.4036   9.6315   9.6550   9.6617
     9.6733   9.7032   9.8147   9.9039   9.9936  10.0481  10.0776  10.0992
    10.3272  10.4202  10.6964  10.8425  10.8977  11.0753  11.4265  11.6367
    13.3856  13.7000  14.0616  14.1813  14.5936  14.6018  14.6808  14.7689
    15.0755  15.2124  15.5125  15.6703  15.8142  16.0255  16.0346  16.1406
    16.2606  16.6519  16.9677  17.2917  17.3215  17.3525  17.5352  17.6962
    17.7409  17.9431  17.9804  18.5761  18.6365  18.6411  18.9064  18.9674

          k = 0.6928 0.4899-0.4000 ( 13046 PWs)   bands (ev):

  -106.8077-106.8077 -62.0194 -62.0194 -62.0190 -62.0177 -55.1177 -55.1175
   -55.1167 -55.1166 -55.1163 -55.1158 -33.3472 -33.3435 -33.3399 -33.3389
   -33.2701 -33.2697 -33.2693 -33.2688 -33.2686 -33.2678 -33.2667 -33.2659
    -5.7029  -5.4072  -4.8598  -4.6880  -4.6708  -4.6038  -4.5673  -4.5634
     1.0278   1.0973   1.2526   1.2611   1.3015   1.3276   1.4028   1.4032
     1.4500   1.4510   2.5711   2.6673   3.6601   3.7900   3.9634   4.1392
     4.3252   4.4319   4.6002   4.7879   4.9051   5.0043   5.2273   5.5473
     5.6139   5.6637   5.6729   5.9290   6.0563   6.4207   6.5504   6.7118
     6.8130   7.2364   8.9382   9.1014   9.2491   9.3774   9.6066   9.6198
     9.6990   9.7338   9.7778   9.8333   9.9350   9.9356  10.2326  10.3853
    10.5762  10.5965  10.6826  10.6902  10.8304  11.1050  11.3195  11.4363
    13.1170  13.4578  13.6457  13.8005  14.0207  14.3268  14.3282  14.5531
    14.8940  15.1039  15.4118  15.4442  15.7976  16.3639  16.5527  16.6254
    16.6343  16.9426  17.0943  17.5181  17.5753  17.6258  17.6356  17.8673
    18.0444  18.1890  18.1934  18.4541  18.8306  18.9091  19.1475  19.1767

          k = 0.3464 0.2449 0.6000 ( 13067 PWs)   bands (ev):

  -106.8077-106.8077 -62.0195 -62.0194 -62.0190 -62.0177 -55.1178 -55.1177
   -55.1172 -55.1168 -55.1166 -55.1164 -33.3483 -33.3424 -33.3399 -33.3389
   -33.2701 -33.2699 -33.2692 -33.2691 -33.2690 -33.2675 -33.2665 -33.2657
    -5.7910  -5.3496  -4.7868  -4.6675  -4.6675  -4.5976  -4.5867  -4.5866
     1.0531   1.1204   1.2818   1.2818   1.3053   1.3053   1.3933   1.3933
     1.4593   1.4594   2.2815   2.5551   3.5067   3.5068   4.0889   4.0889
     4.1273   4.6071   4.8772   4.8773   4.9093   5.2816   5.2816   5.4999
     5.6282   5.6283   5.6566   6.0761   6.0761   6.5158   6.6711   6.6712
     7.3735   7.3735   8.6242   8.9687   9.1688   9.1690   9.5632   9.5637
     9.5648   9.8156   9.8156   9.8290   9.8306   9.8308  10.2682  10.6702
    10.6703  10.7435  10.7436  10.9393  10.9817  11.0894  11.1823  11.1825
    12.8239  12.8240  13.0148  13.4240  13.8926  14.0770  14.0771  14.4237
    14.8723  14.8724  15.5048  15.5049  15.7032  16.7917  16.7918  16.8972
    16.8973  17.2414  17.4240  17.4240  17.5799  17.8094  17.9985  17.9986
    18.3611  18.4344  18.4344  18.6444  18.6444  19.4880  19.4881  19.5481

          k = 0.4619 0.3266 0.4000 ( 13046 PWs)   bands (ev):

  -106.8077-106.8077 -62.0194 -62.0194 -62.0190 -62.0177 -55.1177 -55.1175
   -55.1167 -55.1166 -55.1163 -55.1158 -33.3472 -33.3435 -33.3399 -33.3389
   -33.2701 -33.2697 -33.2693 -33.2688 -33.2686 -33.2678 -33.2667 -33.2659
    -5.7029  -5.4072  -4.8598  -4.6880  -4.6708  -4.6038  -4.5673  -4.5634
     1.0278   1.0973   1.2526   1.2611   1.3015   1.3276   1.4028   1.4032
     1.4500   1.4510   2.5711   2.6673   3.6601   3.7900   3.9634   4.1392
     4.3252   4.4319   4.6002   4.7879   4.9051   5.0043   5.2273   5.5473
     5.6139   5.6637   5.6729   5.9290   6.0563   6.4207   6.5504   6.7118
     6.8130   7.2364   8.9382   9.1014   9.2491   9.3774   9.6066   9.6198
     9.6990   9.7338   9.7778   9.8333   9.9350   9.9356  10.2326  10.3853
    10.5762  10.5965  10.6826  10.6902  10.8304  11.1050  11.3195  11.4363
    13.1170  13.4578  13.6457  13.8005  14.0207  14.3268  14.3282  14.5531
    14.8940  15.1039  15.4118  15.4442  15.7976  16.3639  16.5527  16.6254
    16.6343  16.9426  17.0943  17.5181  17.5753  17.6258  17.6356  17.8673
    18.0444  18.1890  18.1934  18.4541  18.8306  18.9091  19.1475  19.1767

          k = 0.5774 0.4082 0.2000 ( 13050 PWs)   bands (ev):

  -106.8077-106.8077 -62.0195 -62.0193 -62.0191 -62.0177 -55.1182 -55.1172
   -55.1168 -55.1164 -55.1162 -55.1161 -33.3454 -33.3451 -33.3400 -33.3390
   -33.2702 -33.2695 -33.2694 -33.2686 -33.2684 -33.2677 -33.2669 -33.2662
    -5.5776  -5.5074  -4.8600  -4.7262  -4.7252  -4.6216  -4.5407  -4.5291
     1.0262   1.0616   1.2339   1.2617   1.2955   1.3276   1.4212   1.4226
     1.4310   1.4350   2.8189   2.8360   3.7230   3.9094   4.0232   4.1492
     4.3611   4.5249   4.6371   4.6985   4.7171   4.9560   5.0829   5.3208
     5.3576   5.5871   5.8061   5.9454   6.1060   6.3172   6.5540   6.5971
     6.7238   6.9223   9.0678   9.0704   9.4036   9.6315   9.6550   9.6617
     9.6733   9.7032   9.8147   9.9039   9.9936  10.0481  10.0776  10.0992
    10.3272  10.4202  10.6964  10.8425  10.8977  11.0753  11.4265  11.6367
    13.3856  13.7000  14.0616  14.1813  14.5936  14.6018  14.6808  14.7689
    15.0755  15.2124  15.5125  15.6703  15.8142  16.0255  16.0346  16.1406
    16.2606  16.6519  16.9677  17.2917  17.3215  17.3525  17.5352  17.6962
    17.7409  17.9431  17.9804  18.5761  18.6365  18.6411  18.9064  18.9674

          k = 0.6928 0.4899 0.0000 ( 13019 PWs)   bands (ev):

  -106.8077-106.8077 -62.0195 -62.0193 -62.0191 -62.0177 -55.1171 -55.1171
   -55.1165 -55.1159 -55.1159 -55.1156 -33.3470 -33.3435 -33.3400 -33.3390
   -33.2702 -33.2696 -33.2693 -33.2690 -33.2684 -33.2673 -33.2668 -33.2663
    -5.6876  -5.4081  -4.7382  -4.7342  -4.7342  -4.7310  -4.5201  -4.5200
     1.0560   1.0635   1.2382   1.2382   1.3214   1.3214   1.4002   1.4079
     1.4446   1.4474   2.6269   2.7755   3.7592   3.8287   3.8289   4.1169
     4.4341   4.4665   4.7563   4.8337   5.0256   5.0827   5.0827   5.2303
     5.2303   5.5382   5.8804   5.9750   6.2442   6.2444   6.5591   6.5591
     6.9685   6.9685   8.8565   9.0666   9.3751   9.5370   9.6198   9.6643
     9.6651   9.7625   9.7632   9.8033   9.8741  10.0961  10.0966  10.1759
    10.4362  10.4367  10.9583  10.9590  11.0649  11.1128  11.2018  11.5035
    13.1816  13.3279  13.7595  13.7596  14.2605  14.2606  14.6964  14.8169
    15.1883  15.1884  15.3299  15.9994  16.4133  16.4134  16.4768  16.4908
    16.6628  16.7353  16.7355  17.0142  17.1018  17.1019  17.3992  17.4558
    17.6938  18.1547  18.2919  18.4573  18.5245  18.5245  19.2325  19.2326

          k = 0.8083 0.5715-0.2000 ( 13041 PWs)   bands (ev):

  -106.8077-106.8077 -62.0195 -62.0193 -62.0190 -62.0177 -55.1175 -55.1171
   -55.1169 -55.1164 -55.1163 -55.1159 -33.3482 -33.3424 -33.3400 -33.3390
   -33.2701 -33.2698 -33.2693 -33.2691 -33.2687 -33.2673 -33.2665 -33.2659
    -5.7890  -5.3270  -4.8040  -4.7073  -4.6822  -4.6254  -4.5582  -4.5464
     1.0659   1.1022   1.2646   1.2839   1.3008   1.3125   1.3874   1.3915
     1.4581   1.4586   2.3353   2.6013   3.5103   3.5874   3.8638   4.2199
     4.2328   4.3749   4.8228   4.9085   5.0286   5.2749   5.4221   5.4989
     5.6574   5.6931   5.7616   6.0295   6.1483   6.3642   6.4948   6.5472
     7.1471   7.2214   8.7251   9.1227   9.2160   9.2932   9.4891   9.6383
     9.6751   9.7700   9.7804   9.8356   9.8395   9.9699  10.1140  10.4669
    10.6430  10.6528  10.7580  10.8701  10.9773  11.1834  11.2117  11.3412
    12.8661  13.0171  13.0558  13.5589  13.8180  14.2854  14.4723  14.5871
    14.7911  14.9593  15.1854  15.7366  15.8343  16.3510  16.5315  16.6968
    16.7357  16.8455  17.1522  17.4273  17.4279  17.6002  17.7959  18.0043
    18.2621  18.5050  18.6241  18.7003  18.9236  19.2233  19.5133  19.6743

          k = 0.4619 0.3266 0.8000 ( 13128 PWs)   bands (ev):

  -106.8077-106.8077 -62.0196 -62.0193 -62.0190 -62.0177 -55.1191 -55.1189
   -55.1184 -55.1174 -55.1173 -55.1166 -33.3500 -33.3408 -33.3400 -33.3389
   -33.2701 -33.2700 -33.2698 -33.2693 -33.2692 -33.2667 -33.2660 -33.2657
    -5.9473  -5.2030  -4.7274  -4.6598  -4.6598  -4.5912  -4.5911  -4.5812
     1.1611   1.2138   1.2825   1.2825   1.3388   1.3388   1.3666   1.3666
     1.4722   1.4723   1.8213   2.2647   3.1441   3.1441   3.3346   4.1692
     4.1692   5.0575   5.0732   5.0733   5.4577   5.4577   5.7258   5.7259
     5.7381   5.8077   6.1857   6.1857   6.3836   6.4135   6.4135   6.6741
     7.6321   7.6321   8.1148   8.8191   8.9760   8.9761   9.4401   9.4406
     9.5136   9.7906   9.7908   9.8365   9.8369   9.8440   9.9603  10.6909
    10.9311  10.9313  10.9952  10.9953  11.0902  11.1167  11.2760  11.2762
    12.1133  12.2303  12.2305  13.1370  13.4380  13.4380  13.6735  14.5206
    14.7290  14.7290  15.6887  15.6888  15.9270  15.9271  16.0065  16.4420
    16.4420  16.6087  16.9268  16.9268  18.6727  18.9357  19.2265  19.3245
    19.3246  19.4309  19.4309  19.6136  19.7364  19.8533  19.8533  20.3686

          k = 0.5774 0.4082 0.6000 ( 13111 PWs)   bands (ev):

  -106.8077-106.8077 -62.0195 -62.0194 -62.0190 -62.0177 -55.1188 -55.1181
   -55.1178 -55.1174 -55.1174 -55.1168 -33.3488 -33.3420 -33.3399 -33.3389
   -33.2700 -33.2697 -33.2694 -33.2693 -33.2690 -33.2672 -33.2662 -33.2658
    -5.8457  -5.2812  -4.8069  -4.6702  -4.6460  -4.6076  -4.6073  -4.5502
     1.0782   1.1431   1.2624   1.2756   1.3034   1.3473   1.3810   1.3813
     1.4632   1.4639   2.1518   2.4984   3.3083   3.5366   3.7108   4.1739
     4.2074   4.4372   4.9523   5.0389   5.1569   5.3977   5.5198   5.6342
     5.6502   5.7695   5.8920   5.9895   6.2031   6.3739   6.5439   6.5498
     7.0710   7.5491   8.5413   9.0593   9.1309   9.2160   9.4537   9.5605
     9.7111   9.7115   9.7897   9.8442   9.8471   9.9062  10.1061  10.7150
    10.7354  10.7555  10.8018  10.8074  10.9509  11.1388  11.2128  11.2822
    12.5770  12.6509  12.7745  13.6655  13.7900  13.8920  14.0240  14.5847
    14.9097  14.9569  15.2144  15.4934  15.6795  15.9771  16.6008  16.6488
    16.7730  16.8158  17.2033  17.3070  17.8708  18.1174  18.2700  18.3562
    18.4967  18.7577  18.9184  19.1719  19.4795  19.6246  19.8202  19.9126

          k = 0.6928 0.4899 0.4000 ( 13046 PWs)   bands (ev):

  -106.8077-106.8077 -62.0194 -62.0194 -62.0190 -62.0177 -55.1177 -55.1175
   -55.1167 -55.1166 -55.1163 -55.1158 -33.3472 -33.3435 -33.3399 -33.3389
   -33.2701 -33.2697 -33.2693 -33.2688 -33.2686 -33.2678 -33.2667 -33.2659
    -5.7029  -5.4072  -4.8598  -4.6880  -4.6708  -4.6038  -4.5673  -4.5634
     1.0278   1.0973   1.2526   1.2611   1.3015   1.3276   1.4028   1.4032
     1.4500   1.4510   2.5711   2.6673   3.6601   3.7900   3.9634   4.1392
     4.3252   4.4319   4.6002   4.7879   4.9051   5.0043   5.2273   5.5473
     5.6139   5.6637   5.6729   5.9290   6.0563   6.4207   6.5504   6.7118
     6.8130   7.2364   8.9382   9.1014   9.2491   9.3774   9.6066   9.6198
     9.6990   9.7338   9.7778   9.8333   9.9350   9.9356  10.2326  10.3853
    10.5762  10.5965  10.6826  10.6902  10.8304  11.1050  11.3195  11.4363
    13.1170  13.4578  13.6457  13.8005  14.0207  14.3268  14.3282  14.5531
    14.8940  15.1039  15.4118  15.4442  15.7976  16.3639  16.5527  16.6254
    16.6343  16.9426  17.0943  17.5181  17.5753  17.6258  17.6356  17.8673
    18.0444  18.1890  18.1934  18.4541  18.8306  18.9091  19.1475  19.1767

          k = 0.8083 0.5715 0.2000 ( 13041 PWs)   bands (ev):

  -106.8077-106.8077 -62.0195 -62.0193 -62.0190 -62.0177 -55.1175 -55.1171
   -55.1169 -55.1164 -55.1163 -55.1159 -33.3482 -33.3424 -33.3400 -33.3390
   -33.2701 -33.2698 -33.2693 -33.2691 -33.2687 -33.2673 -33.2665 -33.2659
    -5.7890  -5.3270  -4.8040  -4.7073  -4.6822  -4.6254  -4.5582  -4.5464
     1.0659   1.1022   1.2646   1.2839   1.3008   1.3125   1.3874   1.3915
     1.4581   1.4586   2.3353   2.6013   3.5103   3.5874   3.8638   4.2199
     4.2328   4.3749   4.8228   4.9085   5.0286   5.2749   5.4221   5.4989
     5.6574   5.6931   5.7616   6.0295   6.1483   6.3642   6.4948   6.5472
     7.1471   7.2214   8.7251   9.1227   9.2160   9.2932   9.4891   9.6383
     9.6751   9.7700   9.7804   9.8356   9.8395   9.9699  10.1140  10.4669
    10.6430  10.6528  10.7580  10.8701  10.9773  11.1834  11.2117  11.3412
    12.8661  13.0171  13.0558  13.5589  13.8180  14.2854  14.4723  14.5871
    14.7911  14.9593  15.1854  15.7366  15.8343  16.3510  16.5315  16.6968
    16.7357  16.8455  17.1522  17.4273  17.4279  17.6002  17.7959  18.0043
    18.2621  18.5050  18.6241  18.7003  18.9236  19.2233  19.5133  19.6743

          k = 0.9238 0.6532 0.0000 ( 13047 PWs)   bands (ev):

  -106.8077-106.8077 -62.0196 -62.0193 -62.0190 -62.0177 -55.1176 -55.1175
   -55.1167 -55.1165 -55.1160 -55.1160 -33.3498 -33.3408 -33.3401 -33.3390
   -33.2702 -33.2700 -33.2697 -33.2692 -33.2690 -33.2667 -33.2660 -33.2659
    -5.9241  -5.2151  -4.6959  -4.6959  -4.6865  -4.6484  -4.5551  -4.5551
     1.1658   1.1702   1.2871   1.2871   1.3177   1.3177   1.3615   1.3667
     1.4701   1.4705   1.9356   2.3269   3.2661   3.2662   3.2754   4.1651
     4.2246   4.9260   5.0566   5.0966   5.3699   5.3699   5.6520   5.6521
     5.8142   5.8273   6.1495   6.2684   6.2685   6.3461   6.3461   6.6436
     7.4475   7.4476   8.3570   8.9322   8.9926   9.0758   9.3829   9.5513
     9.5519   9.8042   9.8049   9.8536   9.8580   9.8959   9.8964  10.6397
    10.8632  10.8637  10.9467  11.0679  11.0684  11.0866  11.1707  11.3067
    12.3270  12.3738  12.3738  13.1803  13.4673  13.4673  13.9712  14.4228
    14.8678  14.8678  15.5425  15.7682  15.9794  16.0690  16.0691  16.4538
    16.4636  16.5638  16.7567  16.7567  18.5709  18.9436  19.0223  19.0224
    19.0676  19.1465  19.3837  19.3837  19.5939  19.6782  20.1242  20.2692

     the Fermi energy is     8.0040 ev
     (compare with:     8.0050 eV, computed in scf)

     Writing output data file /home/hafidz/Documents/PKL/Kalkulasi-DFT/Project-Shift-Current-Multi-Weyl-Semimetal/Cr2HgSe4/Primitive-2/outdir/Cr2HgSe4-SC-Project-2.save/

     init_run     :      6.63s CPU      6.94s WALL (       1 calls)
     electrons    :   2085.23s CPU   2109.55s WALL (       1 calls)

     Called by init_run:
     wfcinit      :      0.00s CPU      0.00s WALL (       1 calls)
     potinit      :      0.44s CPU      0.53s WALL (       1 calls)
     hinit0       :      5.52s CPU      5.54s WALL (       1 calls)

     Called by electrons:
     c_bands      :   2085.22s CPU   2109.53s WALL (       1 calls)
     v_of_rho     :      0.38s CPU      0.46s WALL (       1 calls)
     newd         :      0.53s CPU      0.72s WALL (       1 calls)

     Called by c_bands:
     init_us_2    :      0.20s CPU      0.23s WALL (      50 calls)
     cegterg      :   2036.97s CPU   2060.07s WALL (     166 calls)

     Called by *egterg:
     cdiaghg      :    145.44s CPU    146.53s WALL (    2751 calls)
     h_psi        :    797.33s CPU    818.97s WALL (    2917 calls)
     s_psi        :    130.98s CPU    131.04s WALL (    2917 calls)
     g_psi        :      4.90s CPU      4.91s WALL (    2701 calls)

     Called by h_psi:
     h_psi:calbec :    134.58s CPU    135.06s WALL (    2917 calls)
     vloc_psi     :    528.79s CPU    549.86s WALL (    2917 calls)
     add_vuspsi   :    131.65s CPU    131.74s WALL (    2917 calls)

     General routines
     calbec       :    134.56s CPU    135.05s WALL (    2917 calls)
     fft          :      0.22s CPU      0.25s WALL (      23 calls)
     ffts         :      0.01s CPU      0.01s WALL (       2 calls)
     fftw         :    448.76s CPU    466.66s WALL (  310084 calls)
     interpolate  :      0.03s CPU      0.03s WALL (       2 calls)
     davcio       :      0.10s CPU      0.43s WALL (     100 calls)

     Parallel routines
     fft_scatt_xy :     79.49s CPU     82.62s WALL (  310109 calls)
     fft_scatt_yz :     86.88s CPU     91.21s WALL (  310109 calls)

     PWSCF        :  34m53.21s CPU  35m19.84s WALL


   This run was terminated on:   1:21:51   9Jul2024            

=------------------------------------------------------------------------------=
   JOB DONE.
=------------------------------------------------------------------------------=
