
     Program PROJWFC v.6.7MaX starts on 16Jul2024 at  9:24: 9 

     This program is part of the open-source Quantum ESPRESSO suite
     for quantum simulation of materials; please cite
         "P. Giannozzi et al., J. Phys.:Condens. Matter 21 395502 (2009);
         "P. Giannozzi et al., J. Phys.:Condens. Matter 29 465901 (2017);
          URL http://www.quantum-espresso.org", 
     in publications or presentations arising from this work. More details at
     http://www.quantum-espresso.org/quote

     Parallel version (MPI), running on     4 processors

     MPI processes distributed on     1 nodes
     R & G space division:  proc/nbgrp/npool/nimage =       4

     Reading xml data from directory:

     /home/hafidz/Documents/PKL/Kalkulasi-DFT/Project-Shift-Current-Multi-Weyl-Semimetal/Cr2HgSe4/Primitive-2/outdir/Cr2HgSe4-SC-Project-2.save/
     file Cr.pbe-spn-rrkjus_psl.1.0.0.UPF: wavefunction(s)  3P renormalized
     file Hg.pbe-spn-rrkjus_psl.1.0.0.UPF: wavefunction(s)  5P renormalized

     IMPORTANT: XC functional enforced from input :
     Exchange-correlation= PBE
                           (   1   4   3   4   0   0   0)
     Any further DFT definition will be discarded
     Please, verify this is what you really want


     Parallelization info
     --------------------
     sticks:   dense  smooth     PW     G-vecs:    dense   smooth      PW
     Min        1171     729    211                52939    26143    4088
     Max        1174     730    212                52940    26146    4091
     Sum        4687    2917    847               211759   104579   16361


     Check: negative core charge=   -0.000002

     Gaussian broadening (read from input): ngauss,degauss=   0    0.100000


     Calling projwave .... 
     linear algebra parallelized on   4 procs

  Problem Sizes 
  natomwfc =           92
  nx       =           46
  nbnd     =          120
  nkstot   =           20
  npwx     =         3286
  nkb      =          172


     Atomic states used for projection
     (read from pseudopotential files):

     state #   1: atom   1 (Cr ), wfc  1 (l=0 m= 1)
     state #   2: atom   1 (Cr ), wfc  2 (l=0 m= 1)
     state #   3: atom   1 (Cr ), wfc  3 (l=1 m= 1)
     state #   4: atom   1 (Cr ), wfc  3 (l=1 m= 2)
     state #   5: atom   1 (Cr ), wfc  3 (l=1 m= 3)
     state #   6: atom   1 (Cr ), wfc  4 (l=2 m= 1)
     state #   7: atom   1 (Cr ), wfc  4 (l=2 m= 2)
     state #   8: atom   1 (Cr ), wfc  4 (l=2 m= 3)
     state #   9: atom   1 (Cr ), wfc  4 (l=2 m= 4)
     state #  10: atom   1 (Cr ), wfc  4 (l=2 m= 5)
     state #  11: atom   2 (Cr ), wfc  1 (l=0 m= 1)
     state #  12: atom   2 (Cr ), wfc  2 (l=0 m= 1)
     state #  13: atom   2 (Cr ), wfc  3 (l=1 m= 1)
     state #  14: atom   2 (Cr ), wfc  3 (l=1 m= 2)
     state #  15: atom   2 (Cr ), wfc  3 (l=1 m= 3)
     state #  16: atom   2 (Cr ), wfc  4 (l=2 m= 1)
     state #  17: atom   2 (Cr ), wfc  4 (l=2 m= 2)
     state #  18: atom   2 (Cr ), wfc  4 (l=2 m= 3)
     state #  19: atom   2 (Cr ), wfc  4 (l=2 m= 4)
     state #  20: atom   2 (Cr ), wfc  4 (l=2 m= 5)
     state #  21: atom   3 (Cr ), wfc  1 (l=0 m= 1)
     state #  22: atom   3 (Cr ), wfc  2 (l=0 m= 1)
     state #  23: atom   3 (Cr ), wfc  3 (l=1 m= 1)
     state #  24: atom   3 (Cr ), wfc  3 (l=1 m= 2)
     state #  25: atom   3 (Cr ), wfc  3 (l=1 m= 3)
     state #  26: atom   3 (Cr ), wfc  4 (l=2 m= 1)
     state #  27: atom   3 (Cr ), wfc  4 (l=2 m= 2)
     state #  28: atom   3 (Cr ), wfc  4 (l=2 m= 3)
     state #  29: atom   3 (Cr ), wfc  4 (l=2 m= 4)
     state #  30: atom   3 (Cr ), wfc  4 (l=2 m= 5)
     state #  31: atom   4 (Cr ), wfc  1 (l=0 m= 1)
     state #  32: atom   4 (Cr ), wfc  2 (l=0 m= 1)
     state #  33: atom   4 (Cr ), wfc  3 (l=1 m= 1)
     state #  34: atom   4 (Cr ), wfc  3 (l=1 m= 2)
     state #  35: atom   4 (Cr ), wfc  3 (l=1 m= 3)
     state #  36: atom   4 (Cr ), wfc  4 (l=2 m= 1)
     state #  37: atom   4 (Cr ), wfc  4 (l=2 m= 2)
     state #  38: atom   4 (Cr ), wfc  4 (l=2 m= 3)
     state #  39: atom   4 (Cr ), wfc  4 (l=2 m= 4)
     state #  40: atom   4 (Cr ), wfc  4 (l=2 m= 5)
     state #  41: atom   5 (Hg ), wfc  1 (l=0 m= 1)
     state #  42: atom   5 (Hg ), wfc  2 (l=0 m= 1)
     state #  43: atom   5 (Hg ), wfc  3 (l=1 m= 1)
     state #  44: atom   5 (Hg ), wfc  3 (l=1 m= 2)
     state #  45: atom   5 (Hg ), wfc  3 (l=1 m= 3)
     state #  46: atom   5 (Hg ), wfc  4 (l=2 m= 1)
     state #  47: atom   5 (Hg ), wfc  4 (l=2 m= 2)
     state #  48: atom   5 (Hg ), wfc  4 (l=2 m= 3)
     state #  49: atom   5 (Hg ), wfc  4 (l=2 m= 4)
     state #  50: atom   5 (Hg ), wfc  4 (l=2 m= 5)
     state #  51: atom   6 (Hg ), wfc  1 (l=0 m= 1)
     state #  52: atom   6 (Hg ), wfc  2 (l=0 m= 1)
     state #  53: atom   6 (Hg ), wfc  3 (l=1 m= 1)
     state #  54: atom   6 (Hg ), wfc  3 (l=1 m= 2)
     state #  55: atom   6 (Hg ), wfc  3 (l=1 m= 3)
     state #  56: atom   6 (Hg ), wfc  4 (l=2 m= 1)
     state #  57: atom   6 (Hg ), wfc  4 (l=2 m= 2)
     state #  58: atom   6 (Hg ), wfc  4 (l=2 m= 3)
     state #  59: atom   6 (Hg ), wfc  4 (l=2 m= 4)
     state #  60: atom   6 (Hg ), wfc  4 (l=2 m= 5)
     state #  61: atom   7 (Se ), wfc  1 (l=0 m= 1)
     state #  62: atom   7 (Se ), wfc  2 (l=1 m= 1)
     state #  63: atom   7 (Se ), wfc  2 (l=1 m= 2)
     state #  64: atom   7 (Se ), wfc  2 (l=1 m= 3)
     state #  65: atom   8 (Se ), wfc  1 (l=0 m= 1)
     state #  66: atom   8 (Se ), wfc  2 (l=1 m= 1)
     state #  67: atom   8 (Se ), wfc  2 (l=1 m= 2)
     state #  68: atom   8 (Se ), wfc  2 (l=1 m= 3)
     state #  69: atom   9 (Se ), wfc  1 (l=0 m= 1)
     state #  70: atom   9 (Se ), wfc  2 (l=1 m= 1)
     state #  71: atom   9 (Se ), wfc  2 (l=1 m= 2)
     state #  72: atom   9 (Se ), wfc  2 (l=1 m= 3)
     state #  73: atom  10 (Se ), wfc  1 (l=0 m= 1)
     state #  74: atom  10 (Se ), wfc  2 (l=1 m= 1)
     state #  75: atom  10 (Se ), wfc  2 (l=1 m= 2)
     state #  76: atom  10 (Se ), wfc  2 (l=1 m= 3)
     state #  77: atom  11 (Se ), wfc  1 (l=0 m= 1)
     state #  78: atom  11 (Se ), wfc  2 (l=1 m= 1)
     state #  79: atom  11 (Se ), wfc  2 (l=1 m= 2)
     state #  80: atom  11 (Se ), wfc  2 (l=1 m= 3)
     state #  81: atom  12 (Se ), wfc  1 (l=0 m= 1)
     state #  82: atom  12 (Se ), wfc  2 (l=1 m= 1)
     state #  83: atom  12 (Se ), wfc  2 (l=1 m= 2)
     state #  84: atom  12 (Se ), wfc  2 (l=1 m= 3)
     state #  85: atom  13 (Se ), wfc  1 (l=0 m= 1)
     state #  86: atom  13 (Se ), wfc  2 (l=1 m= 1)
     state #  87: atom  13 (Se ), wfc  2 (l=1 m= 2)
     state #  88: atom  13 (Se ), wfc  2 (l=1 m= 3)
     state #  89: atom  14 (Se ), wfc  1 (l=0 m= 1)
     state #  90: atom  14 (Se ), wfc  2 (l=1 m= 1)
     state #  91: atom  14 (Se ), wfc  2 (l=1 m= 2)
     state #  92: atom  14 (Se ), wfc  2 (l=1 m= 3)

 k =   0.0000000000  0.0000000000  0.0000000000
==== e(   1) =  -106.79569 eV ==== 
     psi = 0.498*[#  41]+0.498*[#  51]
    |psi|^2 = 1.000
==== e(   2) =  -106.79569 eV ==== 
     psi = 0.498*[#  41]+0.498*[#  51]
    |psi|^2 = 1.000
==== e(   3) =   -64.88407 eV ==== 
     psi = 0.443*[#   1]+0.443*[#  31]+0.092*[#  21]+0.008*[#  11]+0.001*[#  12]
          
    |psi|^2 = 1.000
==== e(   4) =   -64.88382 eV ==== 
     psi = 0.491*[#   1]+0.491*[#  31]+0.003*[#  66]+0.003*[#  78]+0.003*[#  86]
          +0.003*[#  90]+0.001*[#   2]+0.001*[#  32]
    |psi|^2 = 1.000
==== e(   5) =   -64.88356 eV ==== 
     psi = 0.888*[#  21]+0.047*[#   1]+0.047*[#  31]+0.002*[#  68]+0.002*[#  92]
          +0.002*[#  11]+0.001*[#  22]+0.001*[#  64]+0.001*[#  72]+0.001*[#  76]
          +0.001*[#  84]
    |psi|^2 = 1.000
==== e(   6) =   -64.88226 eV ==== 
     psi = 0.974*[#  11]+0.004*[#  21]+0.003*[#   1]+0.003*[#  31]+0.002*[#  79]
          +0.002*[#  87]+0.001*[#  12]
    |psi|^2 = 1.000
==== e(   7) =   -55.10489 eV ==== 
     psi = 0.415*[#  45]+0.415*[#  55]+0.084*[#  44]+0.084*[#  54]
    |psi|^2 = 1.000
==== e(   8) =   -55.10474 eV ==== 
     psi = 0.415*[#  45]+0.415*[#  55]+0.084*[#  44]+0.084*[#  54]
    |psi|^2 = 1.000
==== e(   9) =   -55.10471 eV ==== 
     psi = 0.499*[#  43]+0.499*[#  53]
    |psi|^2 = 1.000
==== e(  10) =   -55.10467 eV ==== 
     psi = 0.415*[#  44]+0.415*[#  54]+0.084*[#  45]+0.084*[#  55]
    |psi|^2 = 1.000
==== e(  11) =   -55.10456 eV ==== 
     psi = 0.499*[#  43]+0.499*[#  53]
    |psi|^2 = 1.000
==== e(  12) =   -55.10452 eV ==== 
     psi = 0.415*[#  44]+0.415*[#  54]+0.084*[#  45]+0.084*[#  55]
    |psi|^2 = 1.000
==== e(  13) =   -36.28535 eV ==== 
     psi = 0.254*[#  25]+0.186*[#   3]+0.186*[#  33]+0.169*[#  14]+0.057*[#   4]
          +0.057*[#  34]+0.031*[#   5]+0.031*[#  35]+0.020*[#  15]
    |psi|^2 = 1.000
==== e(  14) =   -36.27853 eV ==== 
     psi = 0.169*[#   4]+0.169*[#  34]+0.155*[#   3]+0.155*[#  33]+0.102*[#  23]
          +0.089*[#   5]+0.089*[#  35]+0.068*[#  13]
    |psi|^2 = 1.000
==== e(  15) =   -36.27841 eV ==== 
     psi = 0.485*[#  25]+0.182*[#   3]+0.182*[#  33]+0.069*[#  15]+0.020*[#   5]
          +0.020*[#  35]+0.012*[#  24]+0.012*[#   4]+0.012*[#  34]+0.002*[#  14]
          
    |psi|^2 = 1.000
==== e(  16) =   -36.27782 eV ==== 
     psi = 0.466*[#  14]+0.108*[#  24]+0.058*[#   3]+0.058*[#  33]+0.058*[#   5]
          +0.058*[#  35]+0.052*[#  25]+0.049*[#  15]+0.044*[#   4]+0.044*[#  34]
          
    |psi|^2 = 1.000
==== e(  17) =   -36.27388 eV ==== 
     psi = 0.229*[#  24]+0.162*[#   4]+0.162*[#  34]+0.095*[#  15]+0.094*[#   5]
          +0.094*[#  35]+0.070*[#   3]+0.070*[#  33]+0.016*[#  25]+0.005*[#  14]
          
    |psi|^2 = 1.000
==== e(  18) =   -36.27387 eV ==== 
     psi = 0.265*[#  23]+0.188*[#   5]+0.188*[#  35]+0.120*[#   4]+0.120*[#  34]
          +0.103*[#  13]+0.005*[#   3]+0.005*[#  33]
    |psi|^2 = 1.000
==== e(  19) =   -36.27241 eV ==== 
     psi = 0.275*[#   3]+0.275*[#  33]+0.208*[#  23]+0.122*[#  13]+0.057*[#   4]
          +0.057*[#  34]+0.001*[#   5]+0.001*[#  35]
    |psi|^2 = 1.000
==== e(  20) =   -36.27239 eV ==== 
     psi = 0.258*[#   5]+0.258*[#  35]+0.173*[#  25]+0.145*[#  15]+0.056*[#   4]
          +0.056*[#  34]+0.035*[#  14]+0.016*[#  24]
    |psi|^2 = 1.000
==== e(  21) =   -36.27230 eV ==== 
     psi = 0.419*[#  24]+0.252*[#  14]+0.142*[#   4]+0.142*[#  34]+0.014*[#   5]
          +0.014*[#  35]+0.009*[#  15]+0.006*[#  25]
    |psi|^2 = 1.000
==== e(  22) =   -36.27136 eV ==== 
     psi = 0.406*[#  23]+0.207*[#   5]+0.207*[#  35]+0.060*[#   3]+0.060*[#  33]
          +0.027*[#   4]+0.027*[#  34]+0.002*[#  13]
    |psi|^2 = 1.000
==== e(  23) =   -36.27061 eV ==== 
     psi = 0.702*[#  13]+0.124*[#   4]+0.124*[#  34]+0.016*[#  23]+0.012*[#   5]
          +0.012*[#  35]+0.003*[#   3]+0.003*[#  33]
    |psi|^2 = 1.000
==== e(  24) =   -36.27054 eV ==== 
     psi = 0.609*[#  15]+0.212*[#  24]+0.067*[#  14]+0.026*[#   4]+0.026*[#  34]
          +0.024*[#   5]+0.024*[#  35]+0.010*[#  25]
    |psi|^2 = 1.000
==== e(  25) =    -5.93021 eV ==== 
     psi = 0.080*[#  61]+0.080*[#  65]+0.080*[#  69]+0.080*[#  73]+0.080*[#  77]
          +0.080*[#  81]+0.080*[#  85]+0.080*[#  89]+0.074*[#   2]+0.074*[#  12]
          +0.074*[#  22]+0.074*[#  32]+0.022*[#  42]+0.022*[#  52]+0.001*[#   1]
          +0.001*[#  11]+0.001*[#  21]+0.001*[#  31]+0.001*[#  80]+0.001*[#  88]
          +0.001*[#  67]+0.001*[#  91]
    |psi|^2 = 0.998
==== e(  26) =    -5.00746 eV ==== 
     psi = 0.114*[#  61]+0.114*[#  65]+0.114*[#  69]+0.114*[#  73]+0.114*[#  77]
          +0.114*[#  81]+0.114*[#  85]+0.114*[#  89]+0.027*[#  42]+0.027*[#  52]
          +0.004*[#  80]+0.004*[#  88]+0.003*[#  67]+0.003*[#  91]+0.003*[#  62]
          +0.003*[#  70]+0.003*[#  74]+0.003*[#  82]
    |psi|^2 = 0.997
==== e(  27) =    -4.49222 eV ==== 
     psi = 0.354*[#  65]+0.354*[#  89]+0.078*[#  77]+0.078*[#  85]+0.025*[#  61]
          +0.025*[#  69]+0.025*[#  73]+0.025*[#  81]+0.006*[#  49]+0.006*[#  59]
          +0.003*[#  50]+0.003*[#  60]+0.002*[#  46]+0.002*[#  56]
    |psi|^2 = 0.995
==== e(  28) =    -4.49215 eV ==== 
     psi = 0.284*[#  77]+0.284*[#  85]+0.096*[#  61]+0.096*[#  69]+0.096*[#  73]
          +0.096*[#  81]+0.007*[#  65]+0.007*[#  89]+0.007*[#  46]+0.007*[#  56]
          +0.004*[#  49]+0.004*[#  59]
    |psi|^2 = 0.995
==== e(  29) =    -4.49213 eV ==== 
     psi = 0.241*[#  61]+0.241*[#  69]+0.241*[#  73]+0.241*[#  81]+0.007*[#  47]
          +0.007*[#  57]+0.004*[#  48]+0.004*[#  58]
    |psi|^2 = 0.995
==== e(  30) =    -4.45061 eV ==== 
     psi = 0.322*[#  65]+0.322*[#  89]+0.071*[#  77]+0.071*[#  85]+0.026*[#  12]
          +0.023*[#  61]+0.023*[#  69]+0.023*[#  73]+0.023*[#  81]+0.014*[#  30]
          +0.012*[#   8]+0.012*[#  38]+0.006*[#   7]+0.006*[#  37]+0.006*[#  22]
          +0.005*[#  49]+0.005*[#  59]+0.004*[#  26]+0.002*[#  50]+0.002*[#  60]
          +0.002*[#   2]+0.002*[#  32]+0.001*[#  10]+0.001*[#  40]+0.001*[#  46]
          +0.001*[#  56]+0.001*[#   6]+0.001*[#  36]
    |psi|^2 = 0.998
==== e(  31) =    -4.45055 eV ==== 
     psi = 0.258*[#  77]+0.258*[#  85]+0.087*[#  61]+0.087*[#  69]+0.087*[#  73]
          +0.087*[#  81]+0.021*[#  22]+0.017*[#  20]+0.007*[#  10]+0.007*[#  40]
          +0.007*[#   2]+0.007*[#  32]+0.007*[#  65]+0.007*[#  89]+0.005*[#  46]
          +0.005*[#  56]+0.005*[#   6]+0.005*[#  36]+0.004*[#  30]+0.004*[#  16]
          +0.003*[#   8]+0.003*[#  38]+0.003*[#  49]+0.003*[#  59]+0.003*[#  19]
          +0.002*[#   7]+0.002*[#  37]
    |psi|^2 = 0.998
==== e(  32) =    -4.45053 eV ==== 
     psi = 0.219*[#  61]+0.219*[#  69]+0.219*[#  73]+0.219*[#  81]+0.018*[#  28]
          +0.018*[#   2]+0.018*[#  32]+0.013*[#  18]+0.011*[#  17]+0.006*[#  47]
          +0.006*[#  57]+0.005*[#  27]+0.005*[#  10]+0.005*[#  40]+0.003*[#  48]
          +0.003*[#  58]+0.002*[#   6]+0.002*[#  36]
    |psi|^2 = 0.998
==== e(  33) =     1.28528 eV ==== 
     psi = 0.403*[#  49]+0.403*[#  59]+0.042*[#  46]+0.042*[#  56]+0.020*[#  80]
          +0.020*[#  88]+0.010*[#  50]+0.010*[#  60]+0.005*[#  67]+0.005*[#  91]
          +0.004*[#  77]+0.004*[#  85]+0.003*[#   8]+0.003*[#  38]+0.002*[#  22]
          +0.002*[#  20]+0.002*[#  68]+0.002*[#  92]+0.002*[#   7]+0.002*[#  37]
          +0.001*[#  19]+0.001*[#  65]+0.001*[#  89]
    |psi|^2 = 0.999
==== e(  34) =     1.28530 eV ==== 
     psi = 0.303*[#  47]+0.303*[#  57]+0.152*[#  48]+0.152*[#  58]+0.011*[#  62]
          +0.011*[#  70]+0.011*[#  74]+0.011*[#  82]+0.005*[#  28]+0.003*[#  17]
          +0.003*[#  61]+0.003*[#  69]+0.003*[#  73]+0.003*[#  81]+0.003*[#  63]
          +0.003*[#  71]+0.003*[#  75]+0.003*[#  83]+0.002*[#  18]+0.001*[#   2]
          +0.001*[#  32]+0.001*[#  10]+0.001*[#  40]+0.001*[#  64]+0.001*[#  72]
          +0.001*[#  76]+0.001*[#  84]
    |psi|^2 = 0.999
==== e(  35) =     1.28532 eV ==== 
     psi = 0.299*[#  46]+0.299*[#  56]+0.142*[#  50]+0.142*[#  60]+0.014*[#  67]
          +0.014*[#  91]+0.014*[#  49]+0.014*[#  59]+0.004*[#  30]+0.003*[#  62]
          +0.003*[#  70]+0.003*[#  74]+0.003*[#  82]+0.003*[#  65]+0.003*[#  89]
          +0.002*[#  63]+0.002*[#  71]+0.002*[#  75]+0.002*[#  83]+0.002*[#  20]
          +0.002*[#   6]+0.002*[#  36]+0.002*[#  12]+0.001*[#  80]+0.001*[#  88]
          +0.001*[#  61]+0.001*[#  69]+0.001*[#  73]+0.001*[#  81]+0.001*[#  10]
          +0.001*[#  40]
    |psi|^2 = 0.999
==== e(  36) =     1.35306 eV ==== 
     psi = 0.310*[#  50]+0.310*[#  60]+0.116*[#  46]+0.116*[#  56]+0.039*[#  49]
          +0.039*[#  59]+0.009*[#  79]+0.009*[#  87]+0.008*[#  68]+0.008*[#  92]
          +0.004*[#  63]+0.004*[#  71]+0.004*[#  75]+0.004*[#  83]+0.003*[#  62]
          +0.003*[#  70]+0.003*[#  74]+0.003*[#  82]+0.002*[#  64]+0.002*[#  72]
          +0.002*[#  76]+0.002*[#  84]
    |psi|^2 = 1.000
==== e(  37) =     1.35309 eV ==== 
     psi = 0.310*[#  48]+0.310*[#  58]+0.154*[#  47]+0.154*[#  57]+0.009*[#  66]
          +0.009*[#  78]+0.009*[#  86]+0.009*[#  90]+0.006*[#  64]+0.006*[#  72]
          +0.006*[#  76]+0.006*[#  84]+0.003*[#  63]+0.003*[#  71]+0.003*[#  75]
          +0.003*[#  83]
    |psi|^2 = 1.000
==== e(  38) =     1.37169 eV ==== 
     psi = 0.402*[#  49]+0.402*[#  59]+0.047*[#  46]+0.047*[#  56]+0.020*[#  80]
          +0.020*[#  88]+0.008*[#  77]+0.008*[#  85]+0.008*[#  50]+0.008*[#  60]
          +0.005*[#  67]+0.005*[#  91]+0.003*[#  65]+0.003*[#  89]
    |psi|^2 = 0.997
==== e(  39) =     1.37171 eV ==== 
     psi = 0.306*[#  47]+0.306*[#  57]+0.152*[#  48]+0.152*[#  58]+0.010*[#  62]
          +0.010*[#  70]+0.010*[#  74]+0.010*[#  82]+0.006*[#  61]+0.006*[#  69]
          +0.006*[#  73]+0.006*[#  81]+0.003*[#  63]+0.003*[#  71]+0.003*[#  75]
          +0.003*[#  83]+0.001*[#  64]+0.001*[#  72]+0.001*[#  76]+0.001*[#  84]
          
    |psi|^2 = 0.997
==== e(  40) =     1.37173 eV ==== 
     psi = 0.296*[#  46]+0.296*[#  56]+0.144*[#  50]+0.144*[#  60]+0.017*[#  49]
          +0.017*[#  59]+0.014*[#  67]+0.014*[#  91]+0.006*[#  65]+0.006*[#  89]
          +0.004*[#  62]+0.004*[#  70]+0.004*[#  74]+0.004*[#  82]+0.003*[#  61]
          +0.003*[#  69]+0.003*[#  73]+0.003*[#  81]+0.002*[#  63]+0.002*[#  71]
          +0.002*[#  75]+0.002*[#  83]+0.001*[#  68]+0.001*[#  92]+0.001*[#  80]
          +0.001*[#  88]
    |psi|^2 = 0.997
==== e(  41) =     1.39122 eV ==== 
     psi = 0.137*[#  42]+0.137*[#  52]+0.076*[#  80]+0.076*[#  88]+0.068*[#  67]
          +0.068*[#  91]+0.051*[#  62]+0.051*[#  70]+0.051*[#  74]+0.051*[#  82]
          +0.017*[#  63]+0.017*[#  71]+0.017*[#  75]+0.017*[#  83]+0.017*[#  29]
          +0.010*[#  19]+0.010*[#   7]+0.010*[#  37]+0.008*[#  64]+0.008*[#  68]
          +0.008*[#  72]+0.008*[#  76]+0.008*[#  84]+0.008*[#  92]+0.007*[#  20]
          +0.006*[#   6]+0.006*[#  16]+0.006*[#  26]+0.006*[#  36]+0.005*[#   8]
          +0.005*[#  38]+0.004*[#   2]+0.004*[#  12]+0.004*[#  22]+0.004*[#  32]
          +0.002*[#  10]+0.002*[#  40]
    |psi|^2 = 0.996
==== e(  42) =     1.47856 eV ==== 
     psi = 0.328*[#  50]+0.328*[#  60]+0.123*[#  46]+0.123*[#  56]+0.041*[#  49]
          +0.041*[#  59]+0.002*[#  79]+0.002*[#  87]+0.002*[#  68]+0.002*[#  92]
          
    |psi|^2 = 0.999
==== e(  43) =     1.47859 eV ==== 
     psi = 0.327*[#  48]+0.327*[#  58]+0.164*[#  47]+0.164*[#  57]+0.002*[#  66]
          +0.002*[#  78]+0.002*[#  86]+0.002*[#  90]+0.001*[#  64]+0.001*[#  72]
          +0.001*[#  76]+0.001*[#  84]
    |psi|^2 = 0.999
==== e(  44) =     2.06933 eV ==== 
     psi = 0.148*[#  42]+0.148*[#  52]+0.087*[#  80]+0.087*[#  88]+0.077*[#  67]
          +0.077*[#  91]+0.058*[#  62]+0.058*[#  70]+0.058*[#  74]+0.058*[#  82]
          +0.019*[#  63]+0.019*[#  71]+0.019*[#  75]+0.019*[#  83]+0.010*[#  64]
          +0.010*[#  68]+0.010*[#  72]+0.010*[#  76]+0.010*[#  84]+0.010*[#  92]
          
    |psi|^2 = 0.996
==== e(  45) =     2.75883 eV ==== 
     psi = 0.114*[#  66]+0.114*[#  78]+0.114*[#  86]+0.114*[#  90]+0.084*[#   2]
          +0.084*[#  32]+0.042*[#  63]+0.042*[#  71]+0.042*[#  75]+0.042*[#  83]
          +0.030*[#  27]+0.021*[#  64]+0.021*[#  72]+0.021*[#  76]+0.021*[#  84]
          +0.019*[#  18]+0.015*[#  17]+0.005*[#  28]+0.004*[#  10]+0.004*[#  40]
          +0.003*[#   6]+0.003*[#  36]+0.003*[#  61]+0.003*[#  69]+0.003*[#  73]
          +0.003*[#  81]+0.003*[#   1]+0.003*[#  31]+0.003*[#   7]+0.003*[#  37]
          +0.001*[#   8]+0.001*[#  38]+0.001*[#  47]+0.001*[#  57]
    |psi|^2 = 0.995
==== e(  46) =     2.75885 eV ==== 
     psi = 0.105*[#  22]+0.104*[#  68]+0.104*[#  92]+0.049*[#  64]+0.049*[#  72]
          +0.049*[#  76]+0.049*[#  84]+0.047*[#  62]+0.047*[#  70]+0.047*[#  74]
          +0.047*[#  82]+0.032*[#  80]+0.032*[#  88]+0.031*[#   2]+0.031*[#  32]
          +0.022*[#  16]+0.019*[#  79]+0.019*[#  87]+0.013*[#   9]+0.013*[#  39]
          +0.012*[#  19]+0.010*[#  67]+0.010*[#  91]+0.006*[#   6]+0.006*[#  36]
          +0.005*[#   7]+0.005*[#  37]+0.004*[#  77]+0.004*[#  85]+0.004*[#  21]
          +0.004*[#  26]+0.002*[#  10]+0.002*[#  40]+0.001*[#  61]+0.001*[#  69]
          +0.001*[#  73]+0.001*[#  81]+0.001*[#   1]+0.001*[#  31]
    |psi|^2 = 0.995
==== e(  47) =     2.75893 eV ==== 
     psi = 0.125*[#  12]+0.096*[#  79]+0.096*[#  87]+0.055*[#  63]+0.055*[#  71]
          +0.055*[#  75]+0.055*[#  83]+0.037*[#  67]+0.037*[#  91]+0.036*[#  64]
          +0.036*[#  72]+0.036*[#  76]+0.036*[#  84]+0.021*[#  22]+0.018*[#  26]
          +0.017*[#   9]+0.017*[#  39]+0.017*[#  62]+0.017*[#  70]+0.017*[#  74]
          +0.017*[#  82]+0.011*[#   2]+0.011*[#  32]+0.009*[#  10]+0.009*[#  40]
          +0.006*[#  29]+0.006*[#  80]+0.006*[#  88]+0.005*[#  65]+0.005*[#  89]
          +0.005*[#  11]+0.004*[#  30]+0.003*[#   8]+0.003*[#  38]+0.002*[#   6]
          +0.002*[#  36]+0.002*[#  68]+0.002*[#  92]
    |psi|^2 = 0.995
==== e(  48) =     4.13289 eV ==== 
     psi = 0.114*[#  79]+0.114*[#  87]+0.101*[#  68]+0.101*[#  92]+0.051*[#  63]
          +0.051*[#  71]+0.051*[#  75]+0.051*[#  83]+0.038*[#  62]+0.038*[#  70]
          +0.038*[#  74]+0.038*[#  82]+0.025*[#  64]+0.025*[#  72]+0.025*[#  76]
          +0.025*[#  84]+0.024*[#  50]+0.024*[#  60]+0.013*[#  67]+0.013*[#  91]
          +0.009*[#  46]+0.009*[#  56]+0.003*[#  49]+0.003*[#  59]+0.001*[#  24]
          +0.001*[#  15]
    |psi|^2 = 0.987
==== e(  49) =     4.13289 eV ==== 
     psi = 0.114*[#  66]+0.114*[#  78]+0.114*[#  86]+0.114*[#  90]+0.076*[#  64]
          +0.076*[#  72]+0.076*[#  76]+0.076*[#  84]+0.038*[#  63]+0.038*[#  71]
          +0.038*[#  75]+0.038*[#  83]+0.024*[#  48]+0.024*[#  58]+0.012*[#  47]
          +0.012*[#  57]+0.001*[#  13]+0.001*[#  23]
    |psi|^2 = 0.987
==== e(  50) =     4.46531 eV ==== 
     psi = 0.142*[#  30]+0.094*[#   6]+0.094*[#  36]+0.086*[#  20]+0.056*[#  19]
          +0.052*[#  79]+0.052*[#  87]+0.046*[#  68]+0.046*[#  92]+0.028*[#  10]
          +0.028*[#  40]+0.023*[#  63]+0.023*[#  71]+0.023*[#  75]+0.023*[#  83]
          +0.017*[#  62]+0.017*[#  70]+0.017*[#  74]+0.017*[#  82]+0.012*[#  64]
          +0.012*[#  72]+0.012*[#  76]+0.012*[#  84]+0.010*[#   7]+0.010*[#  37]
          +0.006*[#  67]+0.006*[#  91]+0.005*[#   8]+0.005*[#  38]+0.004*[#   9]
          +0.004*[#  39]+0.004*[#  50]+0.004*[#  60]+0.001*[#  46]+0.001*[#  56]
          
    |psi|^2 = 0.993
==== e(  51) =     4.46531 eV ==== 
     psi = 0.142*[#  28]+0.126*[#  17]+0.063*[#   8]+0.063*[#  38]+0.052*[#  66]
          +0.052*[#  78]+0.052*[#  86]+0.052*[#  90]+0.042*[#   9]+0.042*[#  39]
          +0.035*[#  64]+0.035*[#  72]+0.035*[#  76]+0.035*[#  84]+0.032*[#   7]
          +0.032*[#  37]+0.017*[#  63]+0.017*[#  71]+0.017*[#  75]+0.017*[#  83]
          +0.016*[#  18]+0.005*[#  10]+0.005*[#  40]+0.004*[#  48]+0.004*[#  58]
          +0.002*[#  47]+0.002*[#  57]
    |psi|^2 = 0.993
==== e(  52) =     5.11038 eV ==== 
     psi = 0.114*[#  10]+0.114*[#  40]+0.099*[#  27]+0.084*[#  28]+0.065*[#  78]
          +0.065*[#  86]+0.044*[#  64]+0.044*[#  72]+0.044*[#  76]+0.044*[#  84]
          +0.027*[#   9]+0.027*[#  39]+0.023*[#   7]+0.023*[#  37]+0.019*[#  62]
          +0.019*[#  70]+0.019*[#  74]+0.019*[#  82]+0.019*[#   6]+0.019*[#  36]
          +0.016*[#   8]+0.016*[#  38]+0.008*[#  63]+0.008*[#  71]+0.008*[#  75]
          +0.008*[#  83]+0.001*[#  18]
    |psi|^2 = 0.998
==== e(  53) =     5.11060 eV ==== 
     psi = 0.183*[#  18]+0.078*[#  66]+0.078*[#  90]+0.077*[#   8]+0.077*[#  38]
          +0.055*[#  10]+0.055*[#  40]+0.044*[#  63]+0.044*[#  71]+0.044*[#  75]
          +0.044*[#  83]+0.034*[#  17]+0.026*[#   7]+0.026*[#  37]+0.019*[#  27]
          +0.016*[#  28]+0.013*[#  78]+0.013*[#  86]+0.008*[#  64]+0.008*[#  72]
          +0.008*[#  76]+0.008*[#  84]+0.007*[#  62]+0.007*[#  70]+0.007*[#  74]
          +0.007*[#  82]+0.007*[#   6]+0.007*[#  36]
    |psi|^2 = 0.998
==== e(  54) =     5.11065 eV ==== 
     psi = 0.125*[#  20]+0.100*[#  30]+0.088*[#  16]+0.088*[#  26]+0.078*[#  79]
          +0.078*[#  87]+0.069*[#  68]+0.069*[#  92]+0.046*[#   8]+0.046*[#  38]
          +0.029*[#  29]+0.023*[#   7]+0.023*[#  37]+0.017*[#  64]+0.017*[#  72]
          +0.017*[#  76]+0.017*[#  84]+0.009*[#  63]+0.009*[#  67]+0.009*[#  71]
          +0.009*[#  75]+0.009*[#  83]+0.009*[#  91]+0.004*[#  19]+0.003*[#   9]
          +0.003*[#  39]
    |psi|^2 = 0.998
==== e(  55) =     5.57573 eV ==== 
     psi = 0.090*[#  66]+0.090*[#  78]+0.090*[#  86]+0.090*[#  90]+0.076*[#  63]
          +0.076*[#  71]+0.076*[#  75]+0.076*[#  83]+0.038*[#  64]+0.038*[#  72]
          +0.038*[#  76]+0.038*[#  84]+0.032*[#  62]+0.032*[#  70]+0.032*[#  74]
          +0.032*[#  82]+0.009*[#  47]+0.009*[#  57]+0.004*[#  48]+0.004*[#  58]
          
    |psi|^2 = 0.976
==== e(  56) =     5.57573 eV ==== 
     psi = 0.151*[#  80]+0.151*[#  88]+0.083*[#  68]+0.083*[#  92]+0.081*[#  62]
          +0.081*[#  70]+0.081*[#  74]+0.081*[#  82]+0.026*[#  64]+0.026*[#  72]
          +0.026*[#  76]+0.026*[#  84]+0.012*[#  79]+0.012*[#  87]+0.007*[#  67]
          +0.007*[#  91]+0.007*[#  46]+0.007*[#  56]+0.005*[#  49]+0.005*[#  59]
          +0.003*[#  63]+0.003*[#  71]+0.003*[#  75]+0.003*[#  83]+0.002*[#  25]
          
    |psi|^2 = 0.976
==== e(  57) =     5.57579 eV ==== 
     psi = 0.158*[#  67]+0.158*[#  91]+0.078*[#  79]+0.078*[#  87]+0.035*[#  64]
          +0.035*[#  72]+0.035*[#  76]+0.035*[#  84]+0.034*[#  62]+0.034*[#  70]
          +0.034*[#  74]+0.034*[#  82]+0.030*[#  63]+0.030*[#  71]+0.030*[#  75]
          +0.030*[#  83]+0.024*[#  80]+0.024*[#  88]+0.016*[#  68]+0.016*[#  92]
          +0.006*[#  49]+0.006*[#  59]+0.004*[#  50]+0.004*[#  60]+0.003*[#  46]
          +0.003*[#  56]+0.002*[#  14]
    |psi|^2 = 0.976
==== e(  58) =     5.67065 eV ==== 
     psi = 0.111*[#  28]+0.087*[#  17]+0.074*[#  62]+0.074*[#  70]+0.074*[#  74]
          +0.074*[#  82]+0.065*[#   7]+0.065*[#  37]+0.039*[#  10]+0.039*[#  40]
          +0.032*[#   8]+0.032*[#  38]+0.027*[#  18]+0.016*[#  47]+0.016*[#  57]
          +0.013*[#   2]+0.013*[#  32]+0.011*[#  66]+0.011*[#  78]+0.011*[#  86]
          +0.011*[#  90]+0.009*[#  63]+0.009*[#  71]+0.009*[#  75]+0.009*[#  83]
          +0.008*[#  48]+0.008*[#  58]+0.005*[#   9]+0.005*[#  39]+0.005*[#  64]
          +0.005*[#  72]+0.005*[#  76]+0.005*[#  84]+0.003*[#  27]+0.003*[#  61]
          +0.003*[#  69]+0.003*[#  73]+0.003*[#  81]
    |psi|^2 = 0.990
==== e(  59) =     5.67066 eV ==== 
     psi = 0.103*[#  80]+0.103*[#  88]+0.102*[#  29]+0.088*[#  20]+0.079*[#   6]
          +0.079*[#  36]+0.028*[#   7]+0.028*[#  37]+0.025*[#  19]+0.025*[#  26]
          +0.020*[#  30]+0.018*[#  64]+0.018*[#  72]+0.018*[#  76]+0.018*[#  84]
          +0.016*[#  22]+0.014*[#  46]+0.014*[#  56]+0.011*[#  10]+0.011*[#  40]
          +0.011*[#  62]+0.011*[#  63]+0.011*[#  70]+0.011*[#  71]+0.011*[#  74]
          +0.011*[#  75]+0.011*[#  82]+0.011*[#  83]+0.009*[#  49]+0.009*[#  59]
          +0.007*[#  68]+0.007*[#  92]+0.005*[#   2]+0.005*[#  32]+0.005*[#  67]
          +0.005*[#  91]+0.004*[#   8]+0.004*[#  38]+0.004*[#  77]+0.004*[#  85]
          +0.002*[#  79]+0.002*[#  87]+0.002*[#   9]+0.002*[#  39]+0.001*[#  50]
          +0.001*[#  60]+0.001*[#  61]+0.001*[#  69]+0.001*[#  73]+0.001*[#  81]
          
    |psi|^2 = 0.990
==== e(  60) =     5.67069 eV ==== 
     psi = 0.109*[#  67]+0.109*[#  91]+0.090*[#  30]+0.080*[#  19]+0.062*[#   8]
          +0.062*[#  38]+0.040*[#  16]+0.034*[#  20]+0.025*[#   6]+0.025*[#  36]
          +0.023*[#  80]+0.023*[#  88]+0.019*[#  12]+0.019*[#   9]+0.019*[#  39]
          +0.016*[#  26]+0.016*[#  68]+0.016*[#  92]+0.016*[#  63]+0.016*[#  71]
          +0.016*[#  75]+0.016*[#  83]+0.015*[#  29]+0.013*[#  49]+0.013*[#  59]
          +0.011*[#   7]+0.011*[#  37]+0.009*[#  79]+0.009*[#  87]+0.007*[#  50]
          +0.007*[#  60]+0.005*[#  65]+0.005*[#  89]+0.004*[#  46]+0.004*[#  56]
          +0.004*[#  22]+0.003*[#  62]+0.003*[#  70]+0.003*[#  74]+0.003*[#  82]
          +0.002*[#   2]+0.002*[#  32]
    |psi|^2 = 0.990
==== e(  61) =     6.00579 eV ==== 
     psi = 0.131*[#  29]+0.127*[#  42]+0.127*[#  52]+0.079*[#  19]+0.077*[#   7]
          +0.077*[#  37]+0.052*[#  20]+0.043*[#   6]+0.044*[#  16]+0.044*[#  26]
          +0.043*[#  36]+0.039*[#   8]+0.039*[#  38]+0.013*[#  10]+0.013*[#  40]
          +0.004*[#   2]+0.004*[#  12]+0.004*[#  22]+0.004*[#  32]+0.002*[#  61]
          +0.002*[#  65]+0.002*[#  69]+0.002*[#  73]+0.002*[#  77]+0.002*[#  81]
          +0.002*[#  85]+0.002*[#  89]+0.002*[#   9]+0.002*[#  39]
    |psi|^2 = 0.982
==== e(  62) =     6.34942 eV ==== 
     psi = 0.158*[#  78]+0.158*[#  86]+0.106*[#  64]+0.106*[#  72]+0.106*[#  76]
          +0.106*[#  84]+0.043*[#  62]+0.043*[#  70]+0.043*[#  74]+0.043*[#  82]
          +0.017*[#  63]+0.017*[#  71]+0.017*[#  75]+0.017*[#  83]
    |psi|^2 = 0.981
==== e(  63) =     6.34945 eV ==== 
     psi = 0.183*[#  66]+0.183*[#  90]+0.106*[#  63]+0.106*[#  71]+0.106*[#  75]
          +0.106*[#  83]+0.025*[#  78]+0.025*[#  86]+0.018*[#  62]+0.018*[#  70]
          +0.018*[#  74]+0.018*[#  82]+0.017*[#  64]+0.017*[#  72]+0.017*[#  76]
          +0.017*[#  84]
    |psi|^2 = 0.981
==== e(  64) =     6.34945 eV ==== 
     psi = 0.183*[#  79]+0.183*[#  87]+0.163*[#  68]+0.163*[#  92]+0.041*[#  64]
          +0.041*[#  72]+0.041*[#  76]+0.041*[#  84]+0.020*[#  63]+0.020*[#  67]
          +0.020*[#  71]+0.020*[#  75]+0.020*[#  83]+0.020*[#  91]
    |psi|^2 = 0.981
==== e(  65) =     6.40019 eV ==== 
     psi = 0.241*[#  27]+0.200*[#  18]+0.163*[#   9]+0.163*[#  39]+0.043*[#  17]
          +0.040*[#   8]+0.040*[#  38]+0.020*[#  10]+0.020*[#  40]+0.020*[#   7]
          +0.020*[#  37]+0.002*[#  28]+0.001*[#  66]+0.001*[#  78]+0.001*[#  86]
          +0.001*[#  90]
    |psi|^2 = 0.986
==== e(  66) =     6.40019 eV ==== 
     psi = 0.181*[#  26]+0.180*[#  16]+0.133*[#  10]+0.133*[#  40]+0.060*[#  29]
          +0.048*[#  19]+0.041*[#   7]+0.041*[#  37]+0.032*[#   6]+0.032*[#  36]
          +0.020*[#   8]+0.020*[#  38]+0.017*[#   9]+0.017*[#  39]+0.014*[#  20]
          +0.002*[#  30]+0.001*[#  79]+0.001*[#  87]+0.001*[#  68]+0.001*[#  92]
          
    |psi|^2 = 0.986
==== e(  67) =     6.76171 eV ==== 
     psi = 0.163*[#   6]+0.163*[#  36]+0.154*[#   7]+0.154*[#  37]+0.077*[#   8]
          +0.077*[#  38]+0.057*[#  28]+0.037*[#  17]+0.029*[#  18]+0.009*[#  27]
          +0.008*[#  62]+0.008*[#  70]+0.008*[#  74]+0.008*[#  82]+0.004*[#  10]
          +0.004*[#  40]+0.004*[#   2]+0.004*[#  32]+0.002*[#  63]+0.002*[#  71]
          +0.002*[#  75]+0.002*[#  83]+0.001*[#  47]+0.001*[#  57]+0.001*[#  61]
          +0.001*[#  69]+0.001*[#  73]+0.001*[#  81]
    |psi|^2 = 0.984
==== e(  68) =     6.76183 eV ==== 
     psi = 0.331*[#  29]+0.142*[#  26]+0.086*[#   8]+0.086*[#  38]+0.057*[#  10]
          +0.057*[#  40]+0.037*[#   7]+0.037*[#  37]+0.034*[#  20]+0.023*[#  19]
          +0.013*[#  16]+0.012*[#  80]+0.012*[#  88]+0.009*[#  30]+0.005*[#   6]
          +0.005*[#  36]+0.005*[#  22]+0.003*[#   9]+0.003*[#  39]+0.002*[#  62]
          +0.002*[#  70]+0.002*[#  74]+0.002*[#  82]+0.002*[#  77]+0.002*[#  85]
          +0.001*[#   2]+0.001*[#  32]+0.001*[#  64]+0.001*[#  72]+0.001*[#  76]
          +0.001*[#  84]
    |psi|^2 = 0.984
==== e(  69) =     6.76239 eV ==== 
     psi = 0.246*[#  19]+0.180*[#  20]+0.135*[#  16]+0.094*[#  29]+0.080*[#   7]
          +0.080*[#  37]+0.047*[#  30]+0.014*[#  10]+0.014*[#  40]+0.013*[#  67]
          +0.013*[#  91]+0.009*[#   9]+0.009*[#  39]+0.006*[#  26]+0.005*[#  12]
          +0.004*[#   8]+0.004*[#  38]+0.002*[#  80]+0.002*[#  88]+0.002*[#   6]
          +0.002*[#  36]+0.002*[#  65]+0.002*[#  68]+0.002*[#  89]+0.002*[#  92]
          +0.001*[#  63]+0.001*[#  71]+0.001*[#  75]+0.001*[#  83]
    |psi|^2 = 0.984
==== e(  70) =     6.86608 eV ==== 
     psi = 0.174*[#   6]+0.174*[#  36]+0.165*[#  28]+0.146*[#  27]+0.076*[#   9]
          +0.076*[#  39]+0.046*[#   7]+0.046*[#  37]+0.046*[#   8]+0.046*[#  38]
          +0.002*[#  17]
    |psi|^2 = 0.999
==== e(  71) =     6.86651 eV ==== 
     psi = 0.310*[#  17]+0.139*[#   9]+0.139*[#  39]+0.061*[#   6]+0.061*[#  36]
          +0.060*[#  18]+0.043*[#  10]+0.043*[#  40]+0.038*[#   7]+0.038*[#  37]
          +0.034*[#  28]+0.030*[#  27]+0.001*[#   8]+0.001*[#  38]
    |psi|^2 = 0.999
==== e(  72) =     6.86661 eV ==== 
     psi = 0.198*[#  30]+0.195*[#  19]+0.132*[#  26]+0.131*[#  16]+0.108*[#   9]
          +0.108*[#  39]+0.046*[#  20]+0.044*[#  29]+0.013*[#  10]+0.013*[#  40]
          +0.003*[#   8]+0.003*[#  38]+0.002*[#   7]+0.002*[#  37]
    |psi|^2 = 0.999
==== e(  73) =     6.97175 eV ==== 
     psi = 0.186*[#  26]+0.160*[#   9]+0.160*[#  39]+0.086*[#  10]+0.086*[#  40]
          +0.053*[#  29]+0.037*[#  30]+0.032*[#   8]+0.032*[#  38]+0.024*[#  12]
          +0.017*[#   6]+0.017*[#  36]+0.016*[#  67]+0.016*[#  91]+0.004*[#  22]
          +0.004*[#  79]+0.004*[#  87]+0.003*[#  16]+0.003*[#  80]+0.003*[#  88]
          +0.003*[#   7]+0.003*[#  37]+0.002*[#  62]+0.002*[#  70]+0.002*[#  74]
          +0.002*[#  82]+0.002*[#   2]+0.002*[#  32]+0.002*[#  64]+0.002*[#  72]
          +0.002*[#  76]+0.002*[#  84]+0.002*[#  65]+0.002*[#  89]+0.002*[#  68]
          +0.002*[#  92]+0.001*[#  63]+0.001*[#  71]+0.001*[#  75]+0.001*[#  83]
          
    |psi|^2 = 0.989
==== e(  74) =     6.97211 eV ==== 
     psi = 0.212*[#  16]+0.122*[#   9]+0.122*[#  39]+0.117*[#  19]+0.056*[#   7]
          +0.056*[#  37]+0.047*[#   6]+0.047*[#  36]+0.027*[#  26]+0.020*[#  22]
          +0.019*[#  29]+0.016*[#  10]+0.016*[#  40]+0.015*[#  80]+0.015*[#  88]
          +0.007*[#  30]+0.007*[#   8]+0.007*[#  38]+0.007*[#  62]+0.007*[#  70]
          +0.007*[#  74]+0.007*[#  82]+0.006*[#   2]+0.006*[#  32]+0.004*[#  68]
          +0.004*[#  92]+0.002*[#  77]+0.002*[#  85]
    |psi|^2 = 0.989
==== e(  75) =     6.97218 eV ==== 
     psi = 0.283*[#  27]+0.188*[#  18]+0.142*[#  17]+0.044*[#  28]+0.041*[#   6]
          +0.041*[#  36]+0.038*[#  10]+0.038*[#  40]+0.016*[#   2]+0.016*[#   7]
          +0.016*[#  32]+0.016*[#  37]+0.008*[#   8]+0.008*[#  38]+0.006*[#  63]
          +0.006*[#  71]+0.006*[#  75]+0.006*[#  83]+0.005*[#   9]+0.005*[#  39]
          +0.005*[#  66]+0.005*[#  78]+0.005*[#  86]+0.005*[#  90]+0.004*[#  62]
          +0.004*[#  70]+0.004*[#  74]+0.004*[#  82]+0.003*[#  64]+0.003*[#  72]
          +0.003*[#  76]+0.003*[#  84]+0.001*[#  61]+0.001*[#  69]+0.001*[#  73]
          +0.001*[#  81]
    |psi|^2 = 0.989
==== e(  76) =     7.90097 eV ==== 
     psi = 0.117*[#  80]+0.117*[#  88]+0.079*[#  68]+0.079*[#  92]+0.065*[#  64]
          +0.065*[#  72]+0.065*[#  76]+0.065*[#  84]+0.060*[#  67]+0.060*[#  91]
          +0.028*[#  79]+0.028*[#  87]+0.028*[#  63]+0.028*[#  71]+0.028*[#  75]
          +0.028*[#  83]+0.015*[#  49]+0.015*[#  59]+0.002*[#  50]+0.002*[#  60]
          
    |psi|^2 = 0.977
==== e(  77) =     7.90097 eV ==== 
     psi = 0.098*[#  67]+0.098*[#  91]+0.080*[#  63]+0.080*[#  71]+0.080*[#  75]
          +0.080*[#  83]+0.065*[#  79]+0.065*[#  87]+0.050*[#  80]+0.050*[#  88]
          +0.035*[#  64]+0.035*[#  72]+0.035*[#  76]+0.035*[#  84]+0.021*[#  68]
          +0.021*[#  92]+0.013*[#  46]+0.013*[#  56]+0.004*[#  50]+0.004*[#  60]
          +0.002*[#  62]+0.002*[#  70]+0.002*[#  74]+0.002*[#  82]
    |psi|^2 = 0.977
==== e(  78) =     7.90098 eV ==== 
     psi = 0.140*[#  62]+0.140*[#  70]+0.140*[#  74]+0.140*[#  82]+0.092*[#  66]
          +0.092*[#  78]+0.092*[#  86]+0.092*[#  90]+0.011*[#  47]+0.011*[#  57]
          +0.006*[#  48]+0.006*[#  58]+0.002*[#  63]+0.002*[#  71]+0.002*[#  75]
          +0.002*[#  83]
    |psi|^2 = 0.977
==== e(  79) =     8.53067 eV ==== 
     psi = 0.309*[#  42]+0.309*[#  52]+0.031*[#  80]+0.031*[#  88]+0.027*[#  67]
          +0.027*[#  91]+0.020*[#  62]+0.020*[#  70]+0.020*[#  74]+0.020*[#  82]
          +0.011*[#  61]+0.011*[#  65]+0.011*[#  69]+0.011*[#  73]+0.011*[#  77]
          +0.011*[#  81]+0.011*[#  85]+0.011*[#  89]+0.007*[#  63]+0.007*[#  71]
          +0.007*[#  75]+0.007*[#  83]+0.003*[#  64]+0.003*[#  68]+0.003*[#  72]
          +0.003*[#  76]+0.003*[#  84]+0.003*[#  92]
    |psi|^2 = 0.951
==== e(  80) =     9.27029 eV ==== 
     psi = 0.172*[#  42]+0.172*[#  52]+0.031*[#   2]+0.031*[#  12]+0.031*[#  22]
          +0.031*[#  32]+0.028*[#  29]+0.024*[#  80]+0.024*[#  88]+0.022*[#  61]
          +0.022*[#  65]+0.022*[#  69]+0.022*[#  73]+0.022*[#  77]+0.022*[#  81]
          +0.022*[#  85]+0.022*[#  89]+0.022*[#  67]+0.022*[#  91]+0.017*[#  19]
          +0.017*[#   7]+0.017*[#  37]+0.016*[#  62]+0.016*[#  70]+0.016*[#  74]
          +0.016*[#  82]+0.011*[#  20]+0.009*[#   6]+0.009*[#  16]+0.009*[#  26]
          +0.009*[#  36]+0.008*[#   8]+0.008*[#  38]+0.005*[#  63]+0.005*[#  71]
          +0.005*[#  75]+0.005*[#  83]+0.003*[#  10]+0.003*[#  40]+0.003*[#  64]
          +0.003*[#  68]+0.003*[#  72]+0.003*[#  76]+0.003*[#  84]+0.003*[#  92]
          
    |psi|^2 = 0.991
==== e(  81) =     9.63351 eV ==== 
     psi = 0.118*[#  67]+0.118*[#  91]+0.111*[#  30]+0.092*[#   8]+0.092*[#  38]
          +0.036*[#   7]+0.036*[#  37]+0.034*[#  26]+0.023*[#  80]+0.023*[#  88]
          +0.021*[#  65]+0.021*[#  89]+0.017*[#  68]+0.017*[#  92]+0.014*[#   6]
          +0.014*[#  36]+0.013*[#  63]+0.013*[#  71]+0.013*[#  75]+0.013*[#  83]
          +0.011*[#  10]+0.011*[#  40]+0.011*[#  19]+0.010*[#  12]+0.007*[#   9]
          +0.007*[#  16]+0.007*[#  39]+0.006*[#  79]+0.006*[#  87]+0.005*[#  62]
          +0.005*[#  70]+0.005*[#  74]+0.005*[#  82]+0.004*[#  77]+0.004*[#  85]
          +0.002*[#  49]+0.002*[#  59]+0.002*[#  20]+0.002*[#  22]+0.002*[#  29]
          +0.002*[#  61]+0.002*[#  69]+0.002*[#  73]+0.002*[#  81]+0.001*[#  50]
          +0.001*[#  60]
    |psi|^2 = 0.961
==== e(  82) =     9.63374 eV ==== 
     psi = 0.123*[#  20]+0.112*[#  80]+0.112*[#  88]+0.046*[#  10]+0.046*[#  40]
          +0.042*[#   6]+0.042*[#  36]+0.027*[#  16]+0.023*[#  30]+0.022*[#   8]
          +0.022*[#  38]+0.022*[#   7]+0.022*[#  37]+0.022*[#  29]+0.021*[#  19]
          +0.017*[#  77]+0.017*[#  85]+0.015*[#  64]+0.015*[#  72]+0.015*[#  76]
          +0.015*[#  84]+0.013*[#  62]+0.013*[#  70]+0.013*[#  74]+0.013*[#  82]
          +0.010*[#  63]+0.010*[#  71]+0.010*[#  75]+0.010*[#  83]+0.008*[#  22]
          +0.005*[#  61]+0.005*[#  69]+0.005*[#  73]+0.005*[#  81]+0.005*[#  68]
          +0.005*[#  92]+0.003*[#  67]+0.003*[#  91]+0.002*[#   2]+0.002*[#   9]
          +0.002*[#  32]+0.002*[#  39]+0.002*[#  46]+0.002*[#  56]+0.002*[#  49]
          +0.002*[#  59]+0.001*[#  79]+0.001*[#  87]
    |psi|^2 = 0.961
==== e(  83) =     9.63380 eV ==== 
     psi = 0.134*[#  28]+0.095*[#  18]+0.078*[#  17]+0.075*[#  62]+0.075*[#  70]
          +0.075*[#  74]+0.075*[#  82]+0.046*[#  10]+0.046*[#  40]+0.039*[#  27]
          +0.014*[#  61]+0.014*[#  69]+0.014*[#  73]+0.014*[#  81]+0.012*[#  63]
          +0.012*[#  71]+0.012*[#  75]+0.012*[#  83]+0.008*[#   7]+0.008*[#  37]
          +0.007*[#   6]+0.007*[#  36]+0.007*[#  66]+0.007*[#  78]+0.007*[#  86]
          +0.007*[#  90]+0.007*[#   2]+0.007*[#  32]+0.006*[#  64]+0.006*[#  72]
          +0.006*[#  76]+0.006*[#  84]+0.006*[#   9]+0.006*[#  39]+0.004*[#   8]
          +0.004*[#  38]+0.003*[#  47]+0.003*[#  57]+0.001*[#  48]+0.001*[#  58]
          
    |psi|^2 = 0.961
==== e(  84) =    10.03542 eV ==== 
     psi = 0.092*[#  78]+0.092*[#  86]+0.079*[#  10]+0.079*[#  40]+0.068*[#  27]
          +0.063*[#  28]+0.061*[#  64]+0.061*[#  72]+0.061*[#  76]+0.061*[#  84]
          +0.026*[#  62]+0.026*[#  70]+0.026*[#  74]+0.026*[#  82]+0.018*[#   9]
          +0.018*[#  39]+0.016*[#   7]+0.016*[#  37]+0.014*[#   6]+0.014*[#  36]
          +0.013*[#   8]+0.013*[#  38]+0.011*[#  63]+0.011*[#  71]+0.011*[#  75]
          +0.011*[#  83]
    |psi|^2 = 0.990
==== e(  85) =    10.03563 eV ==== 
     psi = 0.128*[#  18]+0.108*[#  66]+0.108*[#  90]+0.061*[#  63]+0.061*[#  71]
          +0.061*[#  75]+0.061*[#  83]+0.054*[#   8]+0.054*[#  38]+0.040*[#  10]
          +0.040*[#  40]+0.026*[#  17]+0.019*[#   7]+0.019*[#  37]+0.016*[#  78]
          +0.016*[#  86]+0.012*[#  27]+0.011*[#  28]+0.011*[#  64]+0.011*[#  72]
          +0.011*[#  76]+0.011*[#  84]+0.010*[#  62]+0.010*[#  70]+0.010*[#  74]
          +0.010*[#  82]+0.006*[#   6]+0.006*[#  36]
    |psi|^2 = 0.990
==== e(  86) =    10.03566 eV ==== 
     psi = 0.108*[#  79]+0.108*[#  87]+0.097*[#  68]+0.097*[#  92]+0.091*[#  20]
          +0.075*[#  30]+0.060*[#  16]+0.060*[#  26]+0.033*[#   8]+0.033*[#  38]
          +0.024*[#  64]+0.024*[#  72]+0.024*[#  76]+0.024*[#  84]+0.020*[#  29]
          +0.017*[#   7]+0.017*[#  37]+0.012*[#  67]+0.012*[#  91]+0.012*[#  63]
          +0.012*[#  71]+0.012*[#  75]+0.012*[#  83]+0.004*[#  19]+0.002*[#   9]
          +0.002*[#  39]
    |psi|^2 = 0.990
==== e(  87) =    10.12796 eV ==== 
     psi = 0.104*[#  30]+0.075*[#  20]+0.069*[#  79]+0.069*[#  87]+0.061*[#  68]
          +0.061*[#  92]+0.059*[#   6]+0.059*[#  36]+0.039*[#  10]+0.039*[#  40]
          +0.031*[#  19]+0.031*[#  63]+0.031*[#  71]+0.031*[#  75]+0.031*[#  83]
          +0.023*[#  62]+0.023*[#  70]+0.023*[#  74]+0.023*[#  82]+0.015*[#  64]
          +0.015*[#  72]+0.015*[#  76]+0.015*[#  84]+0.008*[#  67]+0.008*[#  91]
          +0.005*[#   9]+0.005*[#  39]+0.004*[#   7]+0.004*[#  16]+0.004*[#  37]
          +0.004*[#  26]+0.002*[#   8]+0.002*[#  38]+0.002*[#  50]+0.002*[#  60]
          +0.001*[#  29]
    |psi|^2 = 0.991
==== e(  88) =    10.12796 eV ==== 
     psi = 0.104*[#  28]+0.079*[#  17]+0.069*[#  78]+0.069*[#  86]+0.068*[#  66]
          +0.068*[#  90]+0.061*[#   8]+0.061*[#  38]+0.046*[#  64]+0.046*[#  72]
          +0.046*[#  76]+0.046*[#  84]+0.031*[#   7]+0.031*[#  37]+0.030*[#  18]
          +0.023*[#  63]+0.023*[#  71]+0.023*[#  75]+0.023*[#  83]+0.015*[#   9]
          +0.015*[#  39]+0.005*[#  27]+0.002*[#  10]+0.002*[#  40]+0.002*[#  48]
          +0.002*[#  58]
    |psi|^2 = 0.991
==== e(  89) =    11.58497 eV ==== 
     psi = 0.133*[#   2]+0.133*[#  32]+0.025*[#  66]+0.025*[#  78]+0.025*[#  86]
          +0.025*[#  90]+0.013*[#  62]+0.013*[#  70]+0.013*[#  74]+0.013*[#  82]
          +0.002*[#  61]+0.002*[#  69]+0.002*[#  73]+0.002*[#  81]+0.002*[#   1]
          +0.002*[#  31]+0.002*[#   7]+0.002*[#  37]+0.002*[#  47]+0.002*[#  57]
          +0.001*[#   6]+0.001*[#  10]
    |psi|^2 = 0.450
==== e(  90) =    11.58498 eV ==== 
     psi = 0.170*[#  22]+0.047*[#   2]+0.047*[#  32]+0.021*[#  68]+0.021*[#  92]
          +0.018*[#  64]+0.018*[#  72]+0.018*[#  76]+0.018*[#  84]+0.007*[#  80]
          +0.007*[#  88]+0.005*[#  29]+0.004*[#  79]+0.004*[#  87]+0.003*[#  67]
          +0.003*[#  91]+0.003*[#  77]+0.003*[#  85]+0.003*[#  21]+0.002*[#  63]
          +0.002*[#  71]+0.002*[#  75]+0.002*[#  83]+0.001*[#   7]+0.001*[#  37]
          +0.001*[#  46]+0.001*[#  56]+0.001*[#  26]+0.001*[#  49]+0.001*[#  59]
          
    |psi|^2 = 0.450
==== e(  91) =    11.58510 eV ==== 
     psi = 0.198*[#  12]+0.029*[#  22]+0.021*[#  79]+0.021*[#  87]+0.019*[#   2]
          +0.019*[#  32]+0.018*[#  63]+0.018*[#  71]+0.018*[#  75]+0.018*[#  83]
          +0.007*[#  67]+0.007*[#  91]+0.004*[#  64]+0.004*[#  72]+0.004*[#  76]
          +0.004*[#  84]+0.004*[#  65]+0.004*[#  89]+0.003*[#  11]+0.003*[#  19]
          +0.002*[#  20]+0.002*[#  16]+0.001*[#  68]+0.001*[#  92]+0.001*[#  49]
          +0.001*[#  59]+0.001*[#  26]+0.001*[#  80]+0.001*[#  88]
    |psi|^2 = 0.450
==== e(  92) =    12.62103 eV ==== 
     psi = 0.001*[#  65]+0.001*[#  89]
    |psi|^2 = 0.007
==== e(  93) =    12.62106 eV ==== 
     psi = 0.001*[#  77]+0.001*[#  85]
    |psi|^2 = 0.007
==== e(  94) =    12.62107 eV ==== 

    |psi|^2 = 0.007
==== e(  95) =    12.66473 eV ==== 
     psi = 0.105*[#   2]+0.105*[#  12]+0.105*[#  22]+0.105*[#  32]+0.016*[#  61]
          +0.016*[#  65]+0.016*[#  69]+0.016*[#  73]+0.016*[#  77]+0.016*[#  81]
          +0.016*[#  85]+0.016*[#  89]+0.015*[#  80]+0.015*[#  88]+0.014*[#  42]
          +0.014*[#  52]+0.013*[#  67]+0.013*[#  91]+0.010*[#  29]+0.010*[#  62]
          +0.010*[#  70]+0.010*[#  74]+0.010*[#  82]+0.006*[#  19]+0.006*[#   7]
          +0.006*[#  37]+0.004*[#  20]+0.003*[#   6]+0.003*[#  16]+0.003*[#  26]
          +0.003*[#  36]+0.003*[#  63]+0.003*[#  71]+0.003*[#  75]+0.003*[#  83]
          +0.003*[#   8]+0.003*[#  38]+0.002*[#  64]+0.002*[#  68]+0.002*[#  72]
          +0.002*[#  76]+0.002*[#  84]+0.002*[#  92]+0.001*[#  10]+0.001*[#  40]
          
    |psi|^2 = 0.756
==== e(  96) =    14.38324 eV ==== 
     psi = 0.003*[#  80]+0.003*[#  88]+0.001*[#  64]+0.001*[#  72]+0.001*[#  76]
          +0.001*[#  84]+0.001*[#  68]+0.001*[#  92]
    |psi|^2 = 0.018
==== e(  97) =    14.38328 eV ==== 
     psi = 0.003*[#  62]+0.003*[#  70]+0.003*[#  74]+0.003*[#  82]+0.001*[#  66]
          +0.001*[#  78]+0.001*[#  86]+0.001*[#  90]
    |psi|^2 = 0.018
==== e(  98) =    14.38335 eV ==== 
     psi = 0.003*[#  67]+0.003*[#  91]+0.001*[#  63]+0.001*[#  71]+0.001*[#  75]
          +0.001*[#  83]+0.001*[#  79]+0.001*[#  87]
    |psi|^2 = 0.018
==== e(  99) =    14.91148 eV ==== 
     psi = 0.003*[#  27]+0.003*[#  18]+0.002*[#   9]+0.002*[#  39]
    |psi|^2 = 0.016
==== e( 100) =    14.91148 eV ==== 
     psi = 0.002*[#  16]+0.002*[#  26]+0.002*[#  10]+0.002*[#  40]
    |psi|^2 = 0.016
==== e( 101) =    15.87621 eV ==== 
     psi = 0.002*[#  78]+0.002*[#  86]+0.001*[#  64]+0.001*[#  72]+0.001*[#  76]
          +0.001*[#  84]
    |psi|^2 = 0.010
==== e( 102) =    15.87624 eV ==== 
     psi = 0.002*[#  66]+0.002*[#  90]+0.001*[#  63]+0.001*[#  71]+0.001*[#  75]
          +0.001*[#  83]
    |psi|^2 = 0.010
==== e( 103) =    15.87625 eV ==== 
     psi = 0.002*[#  79]+0.002*[#  87]+0.002*[#  68]+0.002*[#  92]
    |psi|^2 = 0.010
==== e( 104) =    16.07595 eV ==== 
     psi = 0.144*[#  22]+0.043*[#   2]+0.043*[#  32]+0.012*[#  68]+0.012*[#  92]
          +0.006*[#  62]+0.006*[#  70]+0.006*[#  74]+0.006*[#  82]+0.006*[#  64]
          +0.006*[#  72]+0.006*[#  76]+0.006*[#  84]+0.005*[#  80]+0.005*[#  88]
          +0.003*[#  16]+0.002*[#  21]+0.002*[#  79]+0.002*[#  87]+0.002*[#  19]
          +0.002*[#   6]+0.002*[#  36]+0.002*[#   9]+0.002*[#  39]+0.001*[#  26]
          +0.001*[#  77]+0.001*[#  85]+0.001*[#  12]+0.001*[#  67]+0.001*[#  91]
          
    |psi|^2 = 0.340
==== e( 105) =    16.07597 eV ==== 
     psi = 0.115*[#   2]+0.115*[#  32]+0.013*[#  66]+0.013*[#  78]+0.013*[#  86]
          +0.013*[#  90]+0.005*[#  63]+0.005*[#  71]+0.005*[#  75]+0.005*[#  83]
          +0.003*[#  17]+0.003*[#  27]+0.003*[#  64]+0.003*[#  72]+0.003*[#  76]
          +0.003*[#  84]+0.002*[#   1]+0.002*[#  31]+0.002*[#  18]+0.002*[#   7]
          +0.002*[#  28]+0.002*[#  37]+0.001*[#  61]+0.001*[#  69]+0.001*[#  73]
          +0.001*[#  81]
    |psi|^2 = 0.340
==== e( 106) =    16.07600 eV ==== 
     psi = 0.171*[#  12]+0.029*[#  22]+0.015*[#   2]+0.015*[#  32]+0.011*[#  79]
          +0.011*[#  87]+0.006*[#  63]+0.006*[#  71]+0.006*[#  75]+0.006*[#  83]
          +0.005*[#  67]+0.005*[#  91]+0.004*[#  64]+0.004*[#  72]+0.004*[#  76]
          +0.004*[#  84]+0.003*[#  11]+0.003*[#   9]+0.003*[#  39]+0.002*[#  62]
          +0.002*[#  70]+0.002*[#  74]+0.002*[#  82]+0.002*[#  29]+0.001*[#  26]
          +0.002*[#  65]+0.002*[#  89]+0.001*[#  30]+0.001*[#  10]+0.001*[#  40]
          
    |psi|^2 = 0.340
==== e( 107) =    16.16020 eV ==== 

    |psi|^2 = 0.005
==== e( 108) =    16.16020 eV ==== 

    |psi|^2 = 0.005
==== e( 109) =    18.23044 eV ==== 
     psi = 0.008*[#  42]+0.008*[#  52]+0.001*[#  80]+0.001*[#  88]+0.001*[#  67]
          +0.001*[#  91]
    |psi|^2 = 0.029
==== e( 110) =    18.27724 eV ==== 
     psi = 0.005*[#   2]+0.005*[#  12]+0.005*[#  22]+0.005*[#  32]+0.004*[#  42]
          +0.004*[#  52]+0.002*[#  61]+0.002*[#  65]+0.002*[#  69]+0.002*[#  73]
          +0.002*[#  77]+0.002*[#  81]+0.002*[#  85]+0.002*[#  89]
    |psi|^2 = 0.044
==== e( 111) =    19.04060 eV ==== 
     psi = 0.041*[#   2]+0.041*[#  32]+0.004*[#  66]+0.004*[#  78]+0.004*[#  86]
          +0.004*[#  90]+0.001*[#  63]+0.001*[#  71]+0.001*[#  75]+0.001*[#  83]
          
    |psi|^2 = 0.111
==== e( 112) =    19.04063 eV ==== 
     psi = 0.043*[#  22]+0.018*[#   2]+0.018*[#  32]+0.004*[#  68]+0.004*[#  92]
          +0.003*[#  12]+0.002*[#  62]+0.002*[#  70]+0.002*[#  74]+0.002*[#  82]
          +0.001*[#  64]+0.001*[#  72]+0.001*[#  76]+0.001*[#  84]+0.001*[#  79]
          +0.001*[#  87]
    |psi|^2 = 0.111
==== e( 113) =    19.04069 eV ==== 
     psi = 0.058*[#  12]+0.018*[#  22]+0.003*[#   2]+0.003*[#  32]+0.003*[#  79]
          +0.003*[#  87]+0.002*[#  63]+0.002*[#  71]+0.002*[#  75]+0.002*[#  83]
          +0.002*[#  64]+0.002*[#  72]+0.002*[#  76]+0.002*[#  84]
    |psi|^2 = 0.111
==== e( 114) =    19.93899 eV ==== 
     psi = 0.004*[#  80]+0.004*[#  88]+0.002*[#  62]+0.002*[#  70]+0.002*[#  74]
          +0.002*[#  82]+0.002*[#  68]+0.002*[#  92]
    |psi|^2 = 0.021
==== e( 115) =    19.93900 eV ==== 
     psi = 0.002*[#  63]+0.002*[#  66]+0.002*[#  71]+0.002*[#  75]+0.002*[#  78]
          +0.002*[#  83]+0.002*[#  86]+0.002*[#  90]
    |psi|^2 = 0.021
==== e( 116) =    19.93914 eV ==== 
     psi = 0.004*[#  67]+0.004*[#  91]+0.001*[#  79]+0.001*[#  87]
    |psi|^2 = 0.021
==== e( 117) =    20.19120 eV ==== 
     psi = 0.025*[#   2]+0.025*[#  12]+0.025*[#  22]+0.025*[#  32]+0.022*[#  42]
          +0.022*[#  52]+0.005*[#  80]+0.005*[#  88]+0.005*[#  67]+0.005*[#  91]
          +0.004*[#  62]+0.004*[#  70]+0.004*[#  74]+0.004*[#  82]+0.003*[#  61]
          +0.003*[#  65]+0.003*[#  69]+0.003*[#  73]+0.003*[#  77]+0.003*[#  81]
          +0.003*[#  85]+0.003*[#  89]+0.001*[#  63]+0.001*[#  71]+0.001*[#  75]
          +0.001*[#  83]
    |psi|^2 = 0.211
==== e( 118) =    20.34779 eV ==== 

    |psi|^2 = 0.005
==== e( 119) =    20.34779 eV ==== 

    |psi|^2 = 0.005
==== e( 120) =    20.74546 eV ==== 
     psi = 0.006*[#  42]+0.006*[#  52]
    |psi|^2 = 0.018

 k =   0.5773502523  0.4082483050 -1.0000000646
==== e(   1) =  -106.79569 eV ==== 
     psi = 0.498*[#  41]+0.498*[#  51]
    |psi|^2 = 1.000
==== e(   2) =  -106.79569 eV ==== 
     psi = 0.498*[#  41]+0.498*[#  51]
    |psi|^2 = 1.000
==== e(   3) =   -64.88407 eV ==== 
     psi = 0.443*[#   1]+0.443*[#  31]+0.092*[#  21]+0.008*[#  11]+0.001*[#  12]
          
    |psi|^2 = 1.000
==== e(   4) =   -64.88382 eV ==== 
     psi = 0.491*[#   1]+0.491*[#  31]+0.003*[#  66]+0.003*[#  78]+0.003*[#  86]
          +0.003*[#  90]+0.001*[#   2]+0.001*[#  32]
    |psi|^2 = 1.000
==== e(   5) =   -64.88356 eV ==== 
     psi = 0.888*[#  21]+0.047*[#   1]+0.047*[#  31]+0.002*[#  68]+0.002*[#  92]
          +0.002*[#  11]+0.001*[#  22]+0.001*[#  64]+0.001*[#  72]+0.001*[#  76]
          +0.001*[#  84]
    |psi|^2 = 1.000
==== e(   6) =   -64.88226 eV ==== 
     psi = 0.974*[#  11]+0.004*[#  21]+0.003*[#   1]+0.003*[#  31]+0.002*[#  79]
          +0.002*[#  87]+0.001*[#  12]
    |psi|^2 = 1.000
==== e(   7) =   -55.10489 eV ==== 
     psi = 0.415*[#  45]+0.415*[#  55]+0.084*[#  44]+0.084*[#  54]
    |psi|^2 = 1.000
==== e(   8) =   -55.10474 eV ==== 
     psi = 0.415*[#  45]+0.415*[#  55]+0.084*[#  44]+0.084*[#  54]
    |psi|^2 = 1.000
==== e(   9) =   -55.10471 eV ==== 
     psi = 0.499*[#  43]+0.499*[#  53]
    |psi|^2 = 1.000
==== e(  10) =   -55.10467 eV ==== 
     psi = 0.415*[#  44]+0.415*[#  54]+0.084*[#  45]+0.084*[#  55]
    |psi|^2 = 1.000
==== e(  11) =   -55.10456 eV ==== 
     psi = 0.499*[#  43]+0.499*[#  53]
    |psi|^2 = 1.000
==== e(  12) =   -55.10452 eV ==== 
     psi = 0.415*[#  44]+0.415*[#  54]+0.084*[#  45]+0.084*[#  55]
    |psi|^2 = 1.000
==== e(  13) =   -36.28535 eV ==== 
     psi = 0.254*[#  25]+0.186*[#   3]+0.186*[#  33]+0.169*[#  14]+0.057*[#   4]
          +0.057*[#  34]+0.031*[#   5]+0.031*[#  35]+0.020*[#  15]
    |psi|^2 = 1.000
==== e(  14) =   -36.27853 eV ==== 
     psi = 0.169*[#   4]+0.169*[#  34]+0.155*[#   3]+0.155*[#  33]+0.102*[#  23]
          +0.089*[#   5]+0.089*[#  35]+0.068*[#  13]
    |psi|^2 = 1.000
==== e(  15) =   -36.27841 eV ==== 
     psi = 0.485*[#  25]+0.182*[#   3]+0.182*[#  33]+0.069*[#  15]+0.020*[#   5]
          +0.020*[#  35]+0.012*[#  24]+0.012*[#   4]+0.012*[#  34]+0.002*[#  14]
          
    |psi|^2 = 1.000
==== e(  16) =   -36.27782 eV ==== 
     psi = 0.466*[#  14]+0.108*[#  24]+0.058*[#   3]+0.058*[#  33]+0.058*[#   5]
          +0.058*[#  35]+0.052*[#  25]+0.049*[#  15]+0.044*[#   4]+0.044*[#  34]
          
    |psi|^2 = 1.000
==== e(  17) =   -36.27388 eV ==== 
     psi = 0.229*[#  24]+0.162*[#   4]+0.162*[#  34]+0.095*[#  15]+0.094*[#   5]
          +0.094*[#  35]+0.070*[#   3]+0.070*[#  33]+0.016*[#  25]+0.005*[#  14]
          
    |psi|^2 = 1.000
==== e(  18) =   -36.27387 eV ==== 
     psi = 0.265*[#  23]+0.188*[#   5]+0.188*[#  35]+0.120*[#   4]+0.120*[#  34]
          +0.103*[#  13]+0.005*[#   3]+0.005*[#  33]
    |psi|^2 = 1.000
==== e(  19) =   -36.27241 eV ==== 
     psi = 0.275*[#   3]+0.275*[#  33]+0.208*[#  23]+0.122*[#  13]+0.057*[#   4]
          +0.057*[#  34]+0.001*[#   5]+0.001*[#  35]
    |psi|^2 = 1.000
==== e(  20) =   -36.27239 eV ==== 
     psi = 0.258*[#   5]+0.258*[#  35]+0.173*[#  25]+0.145*[#  15]+0.056*[#   4]
          +0.056*[#  34]+0.035*[#  14]+0.016*[#  24]
    |psi|^2 = 1.000
==== e(  21) =   -36.27230 eV ==== 
     psi = 0.419*[#  24]+0.252*[#  14]+0.142*[#   4]+0.142*[#  34]+0.014*[#   5]
          +0.014*[#  35]+0.009*[#  15]+0.006*[#  25]
    |psi|^2 = 1.000
==== e(  22) =   -36.27136 eV ==== 
     psi = 0.406*[#  23]+0.207*[#   5]+0.207*[#  35]+0.060*[#   3]+0.060*[#  33]
          +0.027*[#   4]+0.027*[#  34]+0.002*[#  13]
    |psi|^2 = 1.000
==== e(  23) =   -36.27061 eV ==== 
     psi = 0.702*[#  13]+0.124*[#   4]+0.124*[#  34]+0.016*[#  23]+0.012*[#   5]
          +0.012*[#  35]+0.003*[#   3]+0.003*[#  33]
    |psi|^2 = 1.000
==== e(  24) =   -36.27054 eV ==== 
     psi = 0.609*[#  15]+0.212*[#  24]+0.067*[#  14]+0.026*[#   4]+0.026*[#  34]
          +0.024*[#   5]+0.024*[#  35]+0.010*[#  25]
    |psi|^2 = 1.000
==== e(  25) =    -5.93021 eV ==== 
     psi = 0.080*[#  61]+0.080*[#  65]+0.080*[#  69]+0.080*[#  73]+0.080*[#  77]
          +0.080*[#  81]+0.080*[#  85]+0.080*[#  89]+0.074*[#   2]+0.074*[#  12]
          +0.074*[#  22]+0.074*[#  32]+0.022*[#  42]+0.022*[#  52]+0.001*[#   1]
          +0.001*[#  11]+0.001*[#  21]+0.001*[#  31]+0.001*[#  80]+0.001*[#  88]
          +0.001*[#  67]+0.001*[#  91]
    |psi|^2 = 0.998
==== e(  26) =    -5.00746 eV ==== 
     psi = 0.114*[#  61]+0.114*[#  65]+0.114*[#  69]+0.114*[#  73]+0.114*[#  77]
          +0.114*[#  81]+0.114*[#  85]+0.114*[#  89]+0.027*[#  42]+0.027*[#  52]
          +0.004*[#  80]+0.004*[#  88]+0.003*[#  67]+0.003*[#  91]+0.003*[#  62]
          +0.003*[#  70]+0.003*[#  74]+0.003*[#  82]
    |psi|^2 = 0.997
==== e(  27) =    -4.49222 eV ==== 
     psi = 0.354*[#  65]+0.354*[#  89]+0.078*[#  77]+0.078*[#  85]+0.025*[#  61]
          +0.025*[#  69]+0.025*[#  73]+0.025*[#  81]+0.006*[#  49]+0.006*[#  59]
          +0.003*[#  50]+0.003*[#  60]+0.002*[#  46]+0.002*[#  56]
    |psi|^2 = 0.995
==== e(  28) =    -4.49215 eV ==== 
     psi = 0.284*[#  77]+0.284*[#  85]+0.096*[#  61]+0.096*[#  69]+0.096*[#  73]
          +0.096*[#  81]+0.007*[#  65]+0.007*[#  89]+0.007*[#  46]+0.007*[#  56]
          +0.004*[#  49]+0.004*[#  59]
    |psi|^2 = 0.995
==== e(  29) =    -4.49213 eV ==== 
     psi = 0.241*[#  61]+0.241*[#  69]+0.241*[#  73]+0.241*[#  81]+0.007*[#  47]
          +0.007*[#  57]+0.004*[#  48]+0.004*[#  58]
    |psi|^2 = 0.995
==== e(  30) =    -4.45061 eV ==== 
     psi = 0.322*[#  65]+0.322*[#  89]+0.071*[#  77]+0.071*[#  85]+0.026*[#  12]
          +0.023*[#  61]+0.023*[#  69]+0.023*[#  73]+0.023*[#  81]+0.014*[#  30]
          +0.012*[#   8]+0.012*[#  38]+0.006*[#   7]+0.006*[#  37]+0.006*[#  22]
          +0.005*[#  49]+0.005*[#  59]+0.004*[#  26]+0.002*[#  50]+0.002*[#  60]
          +0.002*[#   2]+0.002*[#  32]+0.001*[#  10]+0.001*[#  40]+0.001*[#  46]
          +0.001*[#  56]+0.001*[#   6]+0.001*[#  36]
    |psi|^2 = 0.998
==== e(  31) =    -4.45055 eV ==== 
     psi = 0.258*[#  77]+0.258*[#  85]+0.087*[#  61]+0.087*[#  69]+0.087*[#  73]
          +0.087*[#  81]+0.021*[#  22]+0.017*[#  20]+0.007*[#  10]+0.007*[#  40]
          +0.007*[#   2]+0.007*[#  32]+0.007*[#  65]+0.007*[#  89]+0.005*[#  46]
          +0.005*[#  56]+0.005*[#   6]+0.005*[#  36]+0.004*[#  30]+0.004*[#  16]
          +0.003*[#   8]+0.003*[#  38]+0.003*[#  49]+0.003*[#  59]+0.003*[#  19]
          +0.002*[#   7]+0.002*[#  37]
    |psi|^2 = 0.998
==== e(  32) =    -4.45053 eV ==== 
     psi = 0.219*[#  61]+0.219*[#  69]+0.219*[#  73]+0.219*[#  81]+0.018*[#  28]
          +0.018*[#   2]+0.018*[#  32]+0.013*[#  18]+0.011*[#  17]+0.006*[#  47]
          +0.006*[#  57]+0.005*[#  27]+0.005*[#  10]+0.005*[#  40]+0.003*[#  48]
          +0.003*[#  58]+0.002*[#   6]+0.002*[#  36]
    |psi|^2 = 0.998
==== e(  33) =     1.28528 eV ==== 
     psi = 0.403*[#  49]+0.403*[#  59]+0.042*[#  46]+0.042*[#  56]+0.020*[#  80]
          +0.020*[#  88]+0.010*[#  50]+0.010*[#  60]+0.005*[#  67]+0.005*[#  91]
          +0.004*[#  77]+0.004*[#  85]+0.003*[#   8]+0.003*[#  38]+0.002*[#  22]
          +0.002*[#  20]+0.002*[#  68]+0.002*[#  92]+0.002*[#   7]+0.002*[#  37]
          +0.001*[#  19]+0.001*[#  65]+0.001*[#  89]
    |psi|^2 = 0.999
==== e(  34) =     1.28530 eV ==== 
     psi = 0.303*[#  47]+0.303*[#  57]+0.152*[#  48]+0.152*[#  58]+0.011*[#  62]
          +0.011*[#  70]+0.011*[#  74]+0.011*[#  82]+0.005*[#  28]+0.003*[#  17]
          +0.003*[#  61]+0.003*[#  69]+0.003*[#  73]+0.003*[#  81]+0.003*[#  63]
          +0.003*[#  71]+0.003*[#  75]+0.003*[#  83]+0.002*[#  18]+0.001*[#   2]
          +0.001*[#  32]+0.001*[#  10]+0.001*[#  40]+0.001*[#  64]+0.001*[#  72]
          +0.001*[#  76]+0.001*[#  84]
    |psi|^2 = 0.999
==== e(  35) =     1.28532 eV ==== 
     psi = 0.299*[#  46]+0.299*[#  56]+0.142*[#  50]+0.142*[#  60]+0.014*[#  67]
          +0.014*[#  91]+0.014*[#  49]+0.014*[#  59]+0.004*[#  30]+0.003*[#  62]
          +0.003*[#  70]+0.003*[#  74]+0.003*[#  82]+0.003*[#  65]+0.003*[#  89]
          +0.002*[#  63]+0.002*[#  71]+0.002*[#  75]+0.002*[#  83]+0.002*[#  20]
          +0.002*[#   6]+0.002*[#  36]+0.002*[#  12]+0.001*[#  80]+0.001*[#  88]
          +0.001*[#  61]+0.001*[#  69]+0.001*[#  73]+0.001*[#  81]+0.001*[#  10]
          +0.001*[#  40]
    |psi|^2 = 0.999
==== e(  36) =     1.35306 eV ==== 
     psi = 0.310*[#  50]+0.310*[#  60]+0.116*[#  46]+0.116*[#  56]+0.039*[#  49]
          +0.039*[#  59]+0.009*[#  79]+0.009*[#  87]+0.008*[#  68]+0.008*[#  92]
          +0.004*[#  63]+0.004*[#  71]+0.004*[#  75]+0.004*[#  83]+0.003*[#  62]
          +0.003*[#  70]+0.003*[#  74]+0.003*[#  82]+0.002*[#  64]+0.002*[#  72]
          +0.002*[#  76]+0.002*[#  84]
    |psi|^2 = 1.000
==== e(  37) =     1.35309 eV ==== 
     psi = 0.310*[#  48]+0.310*[#  58]+0.154*[#  47]+0.154*[#  57]+0.009*[#  66]
          +0.009*[#  78]+0.009*[#  86]+0.009*[#  90]+0.006*[#  64]+0.006*[#  72]
          +0.006*[#  76]+0.006*[#  84]+0.003*[#  63]+0.003*[#  71]+0.003*[#  75]
          +0.003*[#  83]
    |psi|^2 = 1.000
==== e(  38) =     1.37169 eV ==== 
     psi = 0.402*[#  49]+0.402*[#  59]+0.047*[#  46]+0.047*[#  56]+0.020*[#  80]
          +0.020*[#  88]+0.008*[#  77]+0.008*[#  85]+0.008*[#  50]+0.008*[#  60]
          +0.005*[#  67]+0.005*[#  91]+0.003*[#  65]+0.003*[#  89]
    |psi|^2 = 0.997
==== e(  39) =     1.37171 eV ==== 
     psi = 0.306*[#  47]+0.306*[#  57]+0.152*[#  48]+0.152*[#  58]+0.010*[#  62]
          +0.010*[#  70]+0.010*[#  74]+0.010*[#  82]+0.006*[#  61]+0.006*[#  69]
          +0.006*[#  73]+0.006*[#  81]+0.003*[#  63]+0.003*[#  71]+0.003*[#  75]
          +0.003*[#  83]+0.001*[#  64]+0.001*[#  72]+0.001*[#  76]+0.001*[#  84]
          
    |psi|^2 = 0.997
==== e(  40) =     1.37173 eV ==== 
     psi = 0.296*[#  46]+0.296*[#  56]+0.144*[#  50]+0.144*[#  60]+0.017*[#  49]
          +0.017*[#  59]+0.014*[#  67]+0.014*[#  91]+0.006*[#  65]+0.006*[#  89]
          +0.004*[#  62]+0.004*[#  70]+0.004*[#  74]+0.004*[#  82]+0.003*[#  61]
          +0.003*[#  69]+0.003*[#  73]+0.003*[#  81]+0.002*[#  63]+0.002*[#  71]
          +0.002*[#  75]+0.002*[#  83]+0.001*[#  68]+0.001*[#  92]+0.001*[#  80]
          +0.001*[#  88]
    |psi|^2 = 0.997
==== e(  41) =     1.39122 eV ==== 
     psi = 0.137*[#  42]+0.137*[#  52]+0.076*[#  80]+0.076*[#  88]+0.068*[#  67]
          +0.068*[#  91]+0.051*[#  62]+0.051*[#  70]+0.051*[#  74]+0.051*[#  82]
          +0.017*[#  63]+0.017*[#  71]+0.017*[#  75]+0.017*[#  83]+0.017*[#  29]
          +0.010*[#  19]+0.010*[#   7]+0.010*[#  37]+0.008*[#  64]+0.008*[#  68]
          +0.008*[#  72]+0.008*[#  76]+0.008*[#  84]+0.008*[#  92]+0.007*[#  20]
          +0.006*[#   6]+0.006*[#  16]+0.006*[#  26]+0.006*[#  36]+0.005*[#   8]
          +0.005*[#  38]+0.004*[#   2]+0.004*[#  12]+0.004*[#  22]+0.004*[#  32]
          +0.002*[#  10]+0.002*[#  40]
    |psi|^2 = 0.996
==== e(  42) =     1.47856 eV ==== 
     psi = 0.328*[#  50]+0.328*[#  60]+0.123*[#  46]+0.123*[#  56]+0.041*[#  49]
          +0.041*[#  59]+0.002*[#  79]+0.002*[#  87]+0.002*[#  68]+0.002*[#  92]
          
    |psi|^2 = 0.999
==== e(  43) =     1.47859 eV ==== 
     psi = 0.327*[#  48]+0.327*[#  58]+0.164*[#  47]+0.164*[#  57]+0.002*[#  66]
          +0.002*[#  78]+0.002*[#  86]+0.002*[#  90]+0.001*[#  64]+0.001*[#  72]
          +0.001*[#  76]+0.001*[#  84]
    |psi|^2 = 0.999
==== e(  44) =     2.06933 eV ==== 
     psi = 0.148*[#  42]+0.148*[#  52]+0.087*[#  80]+0.087*[#  88]+0.077*[#  67]
          +0.077*[#  91]+0.058*[#  62]+0.058*[#  70]+0.058*[#  74]+0.058*[#  82]
          +0.019*[#  63]+0.019*[#  71]+0.019*[#  75]+0.019*[#  83]+0.010*[#  64]
          +0.010*[#  68]+0.010*[#  72]+0.010*[#  76]+0.010*[#  84]+0.010*[#  92]
          
    |psi|^2 = 0.996
==== e(  45) =     2.75883 eV ==== 
     psi = 0.114*[#  66]+0.114*[#  78]+0.114*[#  86]+0.114*[#  90]+0.084*[#   2]
          +0.084*[#  32]+0.042*[#  63]+0.042*[#  71]+0.042*[#  75]+0.042*[#  83]
          +0.030*[#  27]+0.021*[#  64]+0.021*[#  72]+0.021*[#  76]+0.021*[#  84]
          +0.019*[#  18]+0.015*[#  17]+0.005*[#  28]+0.004*[#  10]+0.004*[#  40]
          +0.003*[#   6]+0.003*[#  36]+0.003*[#  61]+0.003*[#  69]+0.003*[#  73]
          +0.003*[#  81]+0.003*[#   1]+0.003*[#  31]+0.003*[#   7]+0.003*[#  37]
          +0.001*[#   8]+0.001*[#  38]+0.001*[#  47]+0.001*[#  57]
    |psi|^2 = 0.995
==== e(  46) =     2.75885 eV ==== 
     psi = 0.105*[#  22]+0.104*[#  68]+0.104*[#  92]+0.049*[#  64]+0.049*[#  72]
          +0.049*[#  76]+0.049*[#  84]+0.047*[#  62]+0.047*[#  70]+0.047*[#  74]
          +0.047*[#  82]+0.032*[#  80]+0.032*[#  88]+0.031*[#   2]+0.031*[#  32]
          +0.022*[#  16]+0.019*[#  79]+0.019*[#  87]+0.013*[#   9]+0.013*[#  39]
          +0.012*[#  19]+0.010*[#  67]+0.010*[#  91]+0.006*[#   6]+0.006*[#  36]
          +0.005*[#   7]+0.005*[#  37]+0.004*[#  77]+0.004*[#  85]+0.004*[#  21]
          +0.004*[#  26]+0.002*[#  10]+0.002*[#  40]+0.001*[#  61]+0.001*[#  69]
          +0.001*[#  73]+0.001*[#  81]+0.001*[#   1]+0.001*[#  31]
    |psi|^2 = 0.995
==== e(  47) =     2.75893 eV ==== 
     psi = 0.125*[#  12]+0.096*[#  79]+0.096*[#  87]+0.055*[#  63]+0.055*[#  71]
          +0.055*[#  75]+0.055*[#  83]+0.037*[#  67]+0.037*[#  91]+0.036*[#  64]
          +0.036*[#  72]+0.036*[#  76]+0.036*[#  84]+0.021*[#  22]+0.018*[#  26]
          +0.017*[#   9]+0.017*[#  39]+0.017*[#  62]+0.017*[#  70]+0.017*[#  74]
          +0.017*[#  82]+0.011*[#   2]+0.011*[#  32]+0.009*[#  10]+0.009*[#  40]
          +0.006*[#  29]+0.006*[#  80]+0.006*[#  88]+0.005*[#  65]+0.005*[#  89]
          +0.005*[#  11]+0.004*[#  30]+0.003*[#   8]+0.003*[#  38]+0.002*[#   6]
          +0.002*[#  36]+0.002*[#  68]+0.002*[#  92]
    |psi|^2 = 0.995
==== e(  48) =     4.13289 eV ==== 
     psi = 0.114*[#  79]+0.114*[#  87]+0.101*[#  68]+0.101*[#  92]+0.051*[#  63]
          +0.051*[#  71]+0.051*[#  75]+0.051*[#  83]+0.038*[#  62]+0.038*[#  70]
          +0.038*[#  74]+0.038*[#  82]+0.025*[#  64]+0.025*[#  72]+0.025*[#  76]
          +0.025*[#  84]+0.024*[#  50]+0.024*[#  60]+0.013*[#  67]+0.013*[#  91]
          +0.009*[#  46]+0.009*[#  56]+0.003*[#  49]+0.003*[#  59]+0.001*[#  24]
          +0.001*[#  15]
    |psi|^2 = 0.987
==== e(  49) =     4.13289 eV ==== 
     psi = 0.114*[#  66]+0.114*[#  78]+0.114*[#  86]+0.114*[#  90]+0.076*[#  64]
          +0.076*[#  72]+0.076*[#  76]+0.076*[#  84]+0.038*[#  63]+0.038*[#  71]
          +0.038*[#  75]+0.038*[#  83]+0.024*[#  48]+0.024*[#  58]+0.012*[#  47]
          +0.012*[#  57]+0.001*[#  13]+0.001*[#  23]
    |psi|^2 = 0.987
==== e(  50) =     4.46531 eV ==== 
     psi = 0.142*[#  30]+0.094*[#   6]+0.094*[#  36]+0.086*[#  20]+0.056*[#  19]
          +0.052*[#  79]+0.052*[#  87]+0.046*[#  68]+0.046*[#  92]+0.028*[#  10]
          +0.028*[#  40]+0.023*[#  63]+0.023*[#  71]+0.023*[#  75]+0.023*[#  83]
          +0.017*[#  62]+0.017*[#  70]+0.017*[#  74]+0.017*[#  82]+0.012*[#  64]
          +0.012*[#  72]+0.012*[#  76]+0.012*[#  84]+0.010*[#   7]+0.010*[#  37]
          +0.006*[#  67]+0.006*[#  91]+0.005*[#   8]+0.005*[#  38]+0.004*[#   9]
          +0.004*[#  39]+0.004*[#  50]+0.004*[#  60]+0.001*[#  46]+0.001*[#  56]
          
    |psi|^2 = 0.993
==== e(  51) =     4.46531 eV ==== 
     psi = 0.142*[#  28]+0.126*[#  17]+0.063*[#   8]+0.063*[#  38]+0.052*[#  66]
          +0.052*[#  78]+0.052*[#  86]+0.052*[#  90]+0.042*[#   9]+0.042*[#  39]
          +0.035*[#  64]+0.035*[#  72]+0.035*[#  76]+0.035*[#  84]+0.032*[#   7]
          +0.032*[#  37]+0.017*[#  63]+0.017*[#  71]+0.017*[#  75]+0.017*[#  83]
          +0.016*[#  18]+0.005*[#  10]+0.005*[#  40]+0.004*[#  48]+0.004*[#  58]
          +0.002*[#  47]+0.002*[#  57]
    |psi|^2 = 0.993
==== e(  52) =     5.11038 eV ==== 
     psi = 0.114*[#  10]+0.114*[#  40]+0.099*[#  27]+0.084*[#  28]+0.065*[#  78]
          +0.065*[#  86]+0.044*[#  64]+0.044*[#  72]+0.044*[#  76]+0.044*[#  84]
          +0.027*[#   9]+0.027*[#  39]+0.023*[#   7]+0.023*[#  37]+0.019*[#  62]
          +0.019*[#  70]+0.019*[#  74]+0.019*[#  82]+0.019*[#   6]+0.019*[#  36]
          +0.016*[#   8]+0.016*[#  38]+0.008*[#  63]+0.008*[#  71]+0.008*[#  75]
          +0.008*[#  83]+0.001*[#  18]
    |psi|^2 = 0.998
==== e(  53) =     5.11060 eV ==== 
     psi = 0.183*[#  18]+0.078*[#  66]+0.078*[#  90]+0.077*[#   8]+0.077*[#  38]
          +0.055*[#  10]+0.055*[#  40]+0.044*[#  63]+0.044*[#  71]+0.044*[#  75]
          +0.044*[#  83]+0.034*[#  17]+0.026*[#   7]+0.026*[#  37]+0.019*[#  27]
          +0.016*[#  28]+0.013*[#  78]+0.013*[#  86]+0.008*[#  64]+0.008*[#  72]
          +0.008*[#  76]+0.008*[#  84]+0.007*[#  62]+0.007*[#  70]+0.007*[#  74]
          +0.007*[#  82]+0.007*[#   6]+0.007*[#  36]
    |psi|^2 = 0.998
==== e(  54) =     5.11065 eV ==== 
     psi = 0.125*[#  20]+0.100*[#  30]+0.088*[#  16]+0.088*[#  26]+0.078*[#  79]
          +0.078*[#  87]+0.069*[#  68]+0.069*[#  92]+0.046*[#   8]+0.046*[#  38]
          +0.029*[#  29]+0.023*[#   7]+0.023*[#  37]+0.017*[#  64]+0.017*[#  72]
          +0.017*[#  76]+0.017*[#  84]+0.009*[#  63]+0.009*[#  67]+0.009*[#  71]
          +0.009*[#  75]+0.009*[#  83]+0.009*[#  91]+0.004*[#  19]+0.003*[#   9]
          +0.003*[#  39]
    |psi|^2 = 0.998
==== e(  55) =     5.57573 eV ==== 
     psi = 0.090*[#  66]+0.090*[#  78]+0.090*[#  86]+0.090*[#  90]+0.076*[#  63]
          +0.076*[#  71]+0.076*[#  75]+0.076*[#  83]+0.038*[#  64]+0.038*[#  72]
          +0.038*[#  76]+0.038*[#  84]+0.032*[#  62]+0.032*[#  70]+0.032*[#  74]
          +0.032*[#  82]+0.009*[#  47]+0.009*[#  57]+0.004*[#  48]+0.004*[#  58]
          
    |psi|^2 = 0.976
==== e(  56) =     5.57573 eV ==== 
     psi = 0.151*[#  80]+0.151*[#  88]+0.083*[#  68]+0.083*[#  92]+0.081*[#  62]
          +0.081*[#  70]+0.081*[#  74]+0.081*[#  82]+0.026*[#  64]+0.026*[#  72]
          +0.026*[#  76]+0.026*[#  84]+0.012*[#  79]+0.012*[#  87]+0.007*[#  67]
          +0.007*[#  91]+0.007*[#  46]+0.007*[#  56]+0.005*[#  49]+0.005*[#  59]
          +0.003*[#  63]+0.003*[#  71]+0.003*[#  75]+0.003*[#  83]+0.002*[#  25]
          
    |psi|^2 = 0.976
==== e(  57) =     5.57579 eV ==== 
     psi = 0.158*[#  67]+0.158*[#  91]+0.078*[#  79]+0.078*[#  87]+0.035*[#  64]
          +0.035*[#  72]+0.035*[#  76]+0.035*[#  84]+0.034*[#  62]+0.034*[#  70]
          +0.034*[#  74]+0.034*[#  82]+0.030*[#  63]+0.030*[#  71]+0.030*[#  75]
          +0.030*[#  83]+0.024*[#  80]+0.024*[#  88]+0.016*[#  68]+0.016*[#  92]
          +0.006*[#  49]+0.006*[#  59]+0.004*[#  50]+0.004*[#  60]+0.003*[#  46]
          +0.003*[#  56]+0.002*[#  14]
    |psi|^2 = 0.976
==== e(  58) =     5.67065 eV ==== 
     psi = 0.111*[#  28]+0.087*[#  17]+0.074*[#  62]+0.074*[#  70]+0.074*[#  74]
          +0.074*[#  82]+0.065*[#   7]+0.065*[#  37]+0.039*[#  10]+0.039*[#  40]
          +0.032*[#   8]+0.032*[#  38]+0.027*[#  18]+0.016*[#  47]+0.016*[#  57]
          +0.013*[#   2]+0.013*[#  32]+0.011*[#  66]+0.011*[#  78]+0.011*[#  86]
          +0.011*[#  90]+0.009*[#  63]+0.009*[#  71]+0.009*[#  75]+0.009*[#  83]
          +0.008*[#  48]+0.008*[#  58]+0.005*[#   9]+0.005*[#  39]+0.005*[#  64]
          +0.005*[#  72]+0.005*[#  76]+0.005*[#  84]+0.003*[#  27]+0.003*[#  61]
          +0.003*[#  69]+0.003*[#  73]+0.003*[#  81]
    |psi|^2 = 0.990
==== e(  59) =     5.67066 eV ==== 
     psi = 0.103*[#  80]+0.103*[#  88]+0.102*[#  29]+0.088*[#  20]+0.079*[#   6]
          +0.079*[#  36]+0.028*[#   7]+0.028*[#  37]+0.025*[#  19]+0.025*[#  26]
          +0.020*[#  30]+0.018*[#  64]+0.018*[#  72]+0.018*[#  76]+0.018*[#  84]
          +0.016*[#  22]+0.014*[#  46]+0.014*[#  56]+0.011*[#  10]+0.011*[#  40]
          +0.011*[#  62]+0.011*[#  63]+0.011*[#  70]+0.011*[#  71]+0.011*[#  74]
          +0.011*[#  75]+0.011*[#  82]+0.011*[#  83]+0.009*[#  49]+0.009*[#  59]
          +0.007*[#  68]+0.007*[#  92]+0.005*[#   2]+0.005*[#  32]+0.005*[#  67]
          +0.005*[#  91]+0.004*[#   8]+0.004*[#  38]+0.004*[#  77]+0.004*[#  85]
          +0.002*[#  79]+0.002*[#  87]+0.002*[#   9]+0.002*[#  39]+0.001*[#  50]
          +0.001*[#  60]+0.001*[#  61]+0.001*[#  69]+0.001*[#  73]+0.001*[#  81]
          
    |psi|^2 = 0.990
==== e(  60) =     5.67069 eV ==== 
     psi = 0.109*[#  67]+0.109*[#  91]+0.090*[#  30]+0.080*[#  19]+0.062*[#   8]
          +0.062*[#  38]+0.040*[#  16]+0.034*[#  20]+0.025*[#   6]+0.025*[#  36]
          +0.023*[#  80]+0.023*[#  88]+0.019*[#  12]+0.019*[#   9]+0.019*[#  39]
          +0.016*[#  26]+0.016*[#  68]+0.016*[#  92]+0.016*[#  63]+0.016*[#  71]
          +0.016*[#  75]+0.016*[#  83]+0.015*[#  29]+0.013*[#  49]+0.013*[#  59]
          +0.011*[#   7]+0.011*[#  37]+0.009*[#  79]+0.009*[#  87]+0.007*[#  50]
          +0.007*[#  60]+0.005*[#  65]+0.005*[#  89]+0.004*[#  46]+0.004*[#  56]
          +0.004*[#  22]+0.003*[#  62]+0.003*[#  70]+0.003*[#  74]+0.003*[#  82]
          +0.002*[#   2]+0.002*[#  32]
    |psi|^2 = 0.990
==== e(  61) =     6.00579 eV ==== 
     psi = 0.131*[#  29]+0.127*[#  42]+0.127*[#  52]+0.079*[#  19]+0.077*[#   7]
          +0.077*[#  37]+0.052*[#  20]+0.043*[#   6]+0.044*[#  16]+0.044*[#  26]
          +0.043*[#  36]+0.039*[#   8]+0.039*[#  38]+0.013*[#  10]+0.013*[#  40]
          +0.004*[#   2]+0.004*[#  12]+0.004*[#  22]+0.004*[#  32]+0.002*[#  61]
          +0.002*[#  65]+0.002*[#  69]+0.002*[#  73]+0.002*[#  77]+0.002*[#  81]
          +0.002*[#  85]+0.002*[#  89]+0.002*[#   9]+0.002*[#  39]
    |psi|^2 = 0.982
==== e(  62) =     6.34942 eV ==== 
     psi = 0.158*[#  78]+0.158*[#  86]+0.106*[#  64]+0.106*[#  72]+0.106*[#  76]
          +0.106*[#  84]+0.043*[#  62]+0.043*[#  70]+0.043*[#  74]+0.043*[#  82]
          +0.017*[#  63]+0.017*[#  71]+0.017*[#  75]+0.017*[#  83]
    |psi|^2 = 0.981
==== e(  63) =     6.34945 eV ==== 
     psi = 0.183*[#  66]+0.183*[#  90]+0.106*[#  63]+0.106*[#  71]+0.106*[#  75]
          +0.106*[#  83]+0.025*[#  78]+0.025*[#  86]+0.018*[#  62]+0.018*[#  70]
          +0.018*[#  74]+0.018*[#  82]+0.017*[#  64]+0.017*[#  72]+0.017*[#  76]
          +0.017*[#  84]
    |psi|^2 = 0.981
==== e(  64) =     6.34945 eV ==== 
     psi = 0.183*[#  79]+0.183*[#  87]+0.163*[#  68]+0.163*[#  92]+0.041*[#  64]
          +0.041*[#  72]+0.041*[#  76]+0.041*[#  84]+0.020*[#  63]+0.020*[#  67]
          +0.020*[#  71]+0.020*[#  75]+0.020*[#  83]+0.020*[#  91]
    |psi|^2 = 0.981
==== e(  65) =     6.40019 eV ==== 
     psi = 0.241*[#  27]+0.200*[#  18]+0.163*[#   9]+0.163*[#  39]+0.043*[#  17]
          +0.040*[#   8]+0.040*[#  38]+0.020*[#  10]+0.020*[#  40]+0.020*[#   7]
          +0.020*[#  37]+0.002*[#  28]+0.001*[#  66]+0.001*[#  78]+0.001*[#  86]
          +0.001*[#  90]
    |psi|^2 = 0.986
==== e(  66) =     6.40019 eV ==== 
     psi = 0.181*[#  26]+0.180*[#  16]+0.133*[#  10]+0.133*[#  40]+0.060*[#  29]
          +0.048*[#  19]+0.041*[#   7]+0.041*[#  37]+0.032*[#   6]+0.032*[#  36]
          +0.020*[#   8]+0.020*[#  38]+0.017*[#   9]+0.017*[#  39]+0.014*[#  20]
          +0.002*[#  30]+0.001*[#  79]+0.001*[#  87]+0.001*[#  68]+0.001*[#  92]
          
    |psi|^2 = 0.986
==== e(  67) =     6.76171 eV ==== 
     psi = 0.163*[#   6]+0.163*[#  36]+0.154*[#   7]+0.154*[#  37]+0.077*[#   8]
          +0.077*[#  38]+0.057*[#  28]+0.037*[#  17]+0.029*[#  18]+0.009*[#  27]
          +0.008*[#  62]+0.008*[#  70]+0.008*[#  74]+0.008*[#  82]+0.004*[#  10]
          +0.004*[#  40]+0.004*[#   2]+0.004*[#  32]+0.002*[#  63]+0.002*[#  71]
          +0.002*[#  75]+0.002*[#  83]+0.001*[#  47]+0.001*[#  57]+0.001*[#  61]
          +0.001*[#  69]+0.001*[#  73]+0.001*[#  81]
    |psi|^2 = 0.984
==== e(  68) =     6.76183 eV ==== 
     psi = 0.331*[#  29]+0.142*[#  26]+0.086*[#   8]+0.086*[#  38]+0.057*[#  10]
          +0.057*[#  40]+0.037*[#   7]+0.037*[#  37]+0.034*[#  20]+0.023*[#  19]
          +0.013*[#  16]+0.012*[#  80]+0.012*[#  88]+0.009*[#  30]+0.005*[#   6]
          +0.005*[#  36]+0.005*[#  22]+0.003*[#   9]+0.003*[#  39]+0.002*[#  62]
          +0.002*[#  70]+0.002*[#  74]+0.002*[#  82]+0.002*[#  77]+0.002*[#  85]
          +0.001*[#   2]+0.001*[#  32]+0.001*[#  64]+0.001*[#  72]+0.001*[#  76]
          +0.001*[#  84]
    |psi|^2 = 0.984
==== e(  69) =     6.76239 eV ==== 
     psi = 0.246*[#  19]+0.180*[#  20]+0.135*[#  16]+0.094*[#  29]+0.080*[#   7]
          +0.080*[#  37]+0.047*[#  30]+0.014*[#  10]+0.014*[#  40]+0.013*[#  67]
          +0.013*[#  91]+0.009*[#   9]+0.009*[#  39]+0.006*[#  26]+0.005*[#  12]
          +0.004*[#   8]+0.004*[#  38]+0.002*[#  80]+0.002*[#  88]+0.002*[#   6]
          +0.002*[#  36]+0.002*[#  65]+0.002*[#  68]+0.002*[#  89]+0.002*[#  92]
          +0.001*[#  63]+0.001*[#  71]+0.001*[#  75]+0.001*[#  83]
    |psi|^2 = 0.984
==== e(  70) =     6.86608 eV ==== 
     psi = 0.174*[#   6]+0.174*[#  36]+0.165*[#  28]+0.146*[#  27]+0.076*[#   9]
          +0.076*[#  39]+0.046*[#   7]+0.046*[#  37]+0.046*[#   8]+0.046*[#  38]
          +0.002*[#  17]
    |psi|^2 = 0.999
==== e(  71) =     6.86651 eV ==== 
     psi = 0.310*[#  17]+0.139*[#   9]+0.139*[#  39]+0.061*[#   6]+0.061*[#  36]
          +0.060*[#  18]+0.043*[#  10]+0.043*[#  40]+0.038*[#   7]+0.038*[#  37]
          +0.034*[#  28]+0.030*[#  27]+0.001*[#   8]+0.001*[#  38]
    |psi|^2 = 0.999
==== e(  72) =     6.86661 eV ==== 
     psi = 0.198*[#  30]+0.195*[#  19]+0.132*[#  26]+0.131*[#  16]+0.108*[#   9]
          +0.108*[#  39]+0.046*[#  20]+0.044*[#  29]+0.013*[#  10]+0.013*[#  40]
          +0.003*[#   8]+0.003*[#  38]+0.002*[#   7]+0.002*[#  37]
    |psi|^2 = 0.999
==== e(  73) =     6.97175 eV ==== 
     psi = 0.186*[#  26]+0.160*[#   9]+0.160*[#  39]+0.086*[#  10]+0.086*[#  40]
          +0.053*[#  29]+0.037*[#  30]+0.032*[#   8]+0.032*[#  38]+0.024*[#  12]
          +0.017*[#   6]+0.017*[#  36]+0.016*[#  67]+0.016*[#  91]+0.004*[#  22]
          +0.004*[#  79]+0.004*[#  87]+0.003*[#  16]+0.003*[#  80]+0.003*[#  88]
          +0.003*[#   7]+0.003*[#  37]+0.002*[#  62]+0.002*[#  70]+0.002*[#  74]
          +0.002*[#  82]+0.002*[#   2]+0.002*[#  32]+0.002*[#  64]+0.002*[#  72]
          +0.002*[#  76]+0.002*[#  84]+0.002*[#  65]+0.002*[#  89]+0.002*[#  68]
          +0.002*[#  92]+0.001*[#  63]+0.001*[#  71]+0.001*[#  75]+0.001*[#  83]
          
    |psi|^2 = 0.989
==== e(  74) =     6.97211 eV ==== 
     psi = 0.212*[#  16]+0.122*[#   9]+0.122*[#  39]+0.117*[#  19]+0.056*[#   7]
          +0.056*[#  37]+0.047*[#   6]+0.047*[#  36]+0.027*[#  26]+0.020*[#  22]
          +0.019*[#  29]+0.016*[#  10]+0.016*[#  40]+0.015*[#  80]+0.015*[#  88]
          +0.007*[#  30]+0.007*[#   8]+0.007*[#  38]+0.007*[#  62]+0.007*[#  70]
          +0.007*[#  74]+0.007*[#  82]+0.006*[#   2]+0.006*[#  32]+0.004*[#  68]
          +0.004*[#  92]+0.002*[#  77]+0.002*[#  85]
    |psi|^2 = 0.989
==== e(  75) =     6.97218 eV ==== 
     psi = 0.283*[#  27]+0.188*[#  18]+0.142*[#  17]+0.044*[#  28]+0.041*[#   6]
          +0.041*[#  36]+0.038*[#  10]+0.038*[#  40]+0.016*[#   2]+0.016*[#   7]
          +0.016*[#  32]+0.016*[#  37]+0.008*[#   8]+0.008*[#  38]+0.006*[#  63]
          +0.006*[#  71]+0.006*[#  75]+0.006*[#  83]+0.005*[#   9]+0.005*[#  39]
          +0.005*[#  66]+0.005*[#  78]+0.005*[#  86]+0.005*[#  90]+0.004*[#  62]
          +0.004*[#  70]+0.004*[#  74]+0.004*[#  82]+0.003*[#  64]+0.003*[#  72]
          +0.003*[#  76]+0.003*[#  84]+0.001*[#  61]+0.001*[#  69]+0.001*[#  73]
          +0.001*[#  81]
    |psi|^2 = 0.989
==== e(  76) =     7.90097 eV ==== 
     psi = 0.117*[#  80]+0.117*[#  88]+0.079*[#  68]+0.079*[#  92]+0.065*[#  64]
          +0.065*[#  72]+0.065*[#  76]+0.065*[#  84]+0.060*[#  67]+0.060*[#  91]
          +0.028*[#  79]+0.028*[#  87]+0.028*[#  63]+0.028*[#  71]+0.028*[#  75]
          +0.028*[#  83]+0.015*[#  49]+0.015*[#  59]+0.002*[#  50]+0.002*[#  60]
          
    |psi|^2 = 0.977
==== e(  77) =     7.90097 eV ==== 
     psi = 0.098*[#  67]+0.098*[#  91]+0.080*[#  63]+0.080*[#  71]+0.080*[#  75]
          +0.080*[#  83]+0.065*[#  79]+0.065*[#  87]+0.050*[#  80]+0.050*[#  88]
          +0.035*[#  64]+0.035*[#  72]+0.035*[#  76]+0.035*[#  84]+0.021*[#  68]
          +0.021*[#  92]+0.013*[#  46]+0.013*[#  56]+0.004*[#  50]+0.004*[#  60]
          +0.002*[#  62]+0.002*[#  70]+0.002*[#  74]+0.002*[#  82]
    |psi|^2 = 0.977
==== e(  78) =     7.90098 eV ==== 
     psi = 0.140*[#  62]+0.140*[#  70]+0.140*[#  74]+0.140*[#  82]+0.092*[#  66]
          +0.092*[#  78]+0.092*[#  86]+0.092*[#  90]+0.011*[#  47]+0.011*[#  57]
          +0.006*[#  48]+0.006*[#  58]+0.002*[#  63]+0.002*[#  71]+0.002*[#  75]
          +0.002*[#  83]
    |psi|^2 = 0.977
==== e(  79) =     8.53067 eV ==== 
     psi = 0.309*[#  42]+0.309*[#  52]+0.031*[#  80]+0.031*[#  88]+0.027*[#  67]
          +0.027*[#  91]+0.020*[#  62]+0.020*[#  70]+0.020*[#  74]+0.020*[#  82]
          +0.011*[#  61]+0.011*[#  65]+0.011*[#  69]+0.011*[#  73]+0.011*[#  77]
          +0.011*[#  81]+0.011*[#  85]+0.011*[#  89]+0.007*[#  63]+0.007*[#  71]
          +0.007*[#  75]+0.007*[#  83]+0.003*[#  64]+0.003*[#  68]+0.003*[#  72]
          +0.003*[#  76]+0.003*[#  84]+0.003*[#  92]
    |psi|^2 = 0.951
==== e(  80) =     9.27029 eV ==== 
     psi = 0.172*[#  42]+0.172*[#  52]+0.031*[#   2]+0.031*[#  12]+0.031*[#  22]
          +0.031*[#  32]+0.028*[#  29]+0.024*[#  80]+0.024*[#  88]+0.022*[#  61]
          +0.022*[#  65]+0.022*[#  69]+0.022*[#  73]+0.022*[#  77]+0.022*[#  81]
          +0.022*[#  85]+0.022*[#  89]+0.022*[#  67]+0.022*[#  91]+0.017*[#  19]
          +0.017*[#   7]+0.017*[#  37]+0.016*[#  62]+0.016*[#  70]+0.016*[#  74]
          +0.016*[#  82]+0.011*[#  20]+0.009*[#   6]+0.009*[#  16]+0.009*[#  26]
          +0.009*[#  36]+0.008*[#   8]+0.008*[#  38]+0.005*[#  63]+0.005*[#  71]
          +0.005*[#  75]+0.005*[#  83]+0.003*[#  10]+0.003*[#  40]+0.003*[#  64]
          +0.003*[#  68]+0.003*[#  72]+0.003*[#  76]+0.003*[#  84]+0.003*[#  92]
          
    |psi|^2 = 0.991
==== e(  81) =     9.63351 eV ==== 
     psi = 0.118*[#  67]+0.118*[#  91]+0.111*[#  30]+0.092*[#   8]+0.092*[#  38]
          +0.036*[#   7]+0.036*[#  37]+0.034*[#  26]+0.023*[#  80]+0.023*[#  88]
          +0.021*[#  65]+0.021*[#  89]+0.017*[#  68]+0.017*[#  92]+0.014*[#   6]
[...]
          +0.004*[#  19]+0.003*[#  80]+0.003*[#  88]+0.003*[#   7]+0.003*[#  37]
          +0.003*[#  62]+0.003*[#  67]+0.003*[#  70]+0.003*[#  74]+0.003*[#  82]
          +0.003*[#  91]+0.002*[#   8]+0.002*[#  38]
    |psi|^2 = 0.215
==== e(  93) =    13.69956 eV ==== 
     psi = 0.009*[#  12]+0.009*[#  22]+0.003*[#  30]+0.002*[#  19]+0.002*[#  67]
          +0.002*[#  91]+0.002*[#  64]+0.002*[#  72]+0.002*[#  76]+0.002*[#  84]
          +0.002*[#  80]+0.002*[#  88]+0.001*[#  16]+0.001*[#  26]+0.001*[#  20]
          +0.001*[#  79]+0.001*[#  87]
    |psi|^2 = 0.051
==== e(  94) =    13.69962 eV ==== 
     psi = 0.009*[#   2]+0.009*[#  32]+0.003*[#  10]+0.003*[#  40]+0.003*[#  66]
          +0.003*[#  78]+0.003*[#  86]+0.003*[#  90]+0.002*[#  63]+0.002*[#  71]
          +0.002*[#  75]+0.002*[#  83]
    |psi|^2 = 0.051
==== e(  95) =    14.25041 eV ==== 
     psi = 0.052*[#   2]+0.052*[#  12]+0.052*[#  22]+0.052*[#  32]+0.012*[#  19]
          +0.009*[#  29]+0.008*[#   7]+0.008*[#  37]+0.008*[#  16]+0.008*[#  26]
          +0.007*[#  67]+0.007*[#  91]+0.007*[#  61]+0.007*[#  65]+0.007*[#  69]
          +0.007*[#  73]+0.007*[#  77]+0.007*[#  81]+0.007*[#  85]+0.007*[#  89]
          +0.007*[#  10]+0.007*[#  40]+0.006*[#  80]+0.006*[#  88]+0.005*[#  63]
          +0.005*[#  71]+0.005*[#  75]+0.005*[#  83]+0.004*[#  79]+0.004*[#  87]
          +0.004*[#   8]+0.004*[#  38]+0.003*[#  30]+0.003*[#  62]+0.003*[#  70]
          +0.003*[#  74]+0.003*[#  82]+0.003*[#  68]+0.003*[#  92]+0.002*[#  64]
          +0.002*[#  72]+0.002*[#  76]+0.002*[#  84]
    |psi|^2 = 0.429
==== e(  96) =    14.44938 eV ==== 
     psi = 0.022*[#   6]+0.022*[#  36]+0.015*[#  20]+0.014*[#   2]+0.014*[#  12]
          +0.014*[#  22]+0.014*[#  32]+0.012*[#  30]+0.007*[#  16]+0.007*[#  26]
          +0.005*[#  68]+0.005*[#  92]+0.005*[#  62]+0.005*[#  70]+0.005*[#  74]
          +0.005*[#  82]+0.004*[#  79]+0.004*[#  87]+0.004*[#  29]+0.002*[#  42]
          +0.002*[#  52]+0.002*[#  61]+0.002*[#  65]+0.002*[#  69]+0.002*[#  73]
          +0.002*[#  77]+0.002*[#  80]+0.002*[#  81]+0.002*[#  85]+0.002*[#  88]
          +0.002*[#  89]
    |psi|^2 = 0.218
==== e(  97) =    14.95776 eV ==== 
     psi = 0.036*[#   2]+0.036*[#  32]+0.008*[#  66]+0.008*[#  78]+0.008*[#  86]
          +0.008*[#  90]+0.005*[#  10]+0.005*[#  40]+0.004*[#  62]+0.004*[#  70]
          +0.004*[#  74]+0.004*[#  82]+0.002*[#   7]+0.002*[#  37]+0.001*[#   8]
          +0.001*[#  38]
    |psi|^2 = 0.147
==== e(  98) =    14.95781 eV ==== 
     psi = 0.036*[#  12]+0.036*[#  22]+0.005*[#  16]+0.005*[#  26]+0.005*[#  64]
          +0.005*[#  72]+0.005*[#  76]+0.005*[#  84]+0.004*[#  19]+0.003*[#  80]
          +0.003*[#  88]+0.003*[#  63]+0.003*[#  68]+0.003*[#  71]+0.003*[#  75]
          +0.003*[#  83]+0.003*[#  92]+0.002*[#  30]+0.002*[#  67]+0.002*[#  91]
          +0.002*[#  29]+0.001*[#  79]+0.001*[#  87]
    |psi|^2 = 0.147
==== e(  99) =    15.32191 eV ==== 
     psi = 0.038*[#   2]+0.038*[#  12]+0.038*[#  22]+0.038*[#  32]+0.015*[#   6]
          +0.015*[#  36]+0.010*[#  30]+0.010*[#  62]+0.010*[#  70]+0.010*[#  74]
          +0.010*[#  82]+0.009*[#  68]+0.009*[#  92]+0.006*[#  20]+0.006*[#  16]
          +0.006*[#  26]+0.006*[#  79]+0.006*[#  87]+0.005*[#  42]+0.005*[#  52]
          +0.005*[#  80]+0.005*[#  88]+0.004*[#  19]+0.002*[#  61]+0.002*[#  65]
          +0.002*[#  67]+0.002*[#  69]+0.002*[#  73]+0.002*[#  77]+0.002*[#  81]
          +0.002*[#  85]+0.002*[#  89]+0.002*[#  91]
    |psi|^2 = 0.328
==== e( 100) =    15.90233 eV ==== 
     psi = 0.010*[#  27]+0.009*[#   9]+0.009*[#  39]+0.007*[#  18]+0.005*[#  17]
          +0.001*[#  28]+0.001*[#  10]+0.001*[#  40]
    |psi|^2 = 0.047
==== e( 101) =    16.12066 eV ==== 
     psi = 0.052*[#   2]+0.052*[#  32]+0.007*[#  66]+0.007*[#  78]+0.007*[#  86]
          +0.007*[#  90]+0.004*[#  17]+0.003*[#  28]+0.002*[#  10]+0.002*[#  40]
          +0.002*[#  27]+0.001*[#  62]+0.001*[#  70]+0.001*[#  74]+0.001*[#  82]
          +0.001*[#   7]+0.001*[#  37]+0.001*[#  63]+0.001*[#  71]+0.001*[#  75]
          +0.001*[#  83]
    |psi|^2 = 0.168
==== e( 102) =    16.12075 eV ==== 
     psi = 0.052*[#  22]+0.051*[#  12]+0.005*[#  64]+0.005*[#  72]+0.005*[#  76]
          +0.005*[#  84]+0.004*[#   9]+0.004*[#  39]+0.002*[#  29]+0.002*[#  63]
          +0.002*[#  67]+0.002*[#  71]+0.002*[#  75]+0.002*[#  83]+0.002*[#  91]
          +0.002*[#  80]+0.002*[#  88]+0.002*[#  16]+0.002*[#  26]+0.001*[#  20]
          +0.001*[#  79]+0.001*[#  87]+0.001*[#  19]+0.001*[#  68]+0.001*[#  92]
          
    |psi|^2 = 0.168
==== e( 103) =    16.13237 eV ==== 
     psi = 0.005*[#  16]+0.005*[#  26]+0.005*[#  29]+0.004*[#  19]+0.004*[#  10]
          +0.004*[#  40]+0.003*[#   7]+0.003*[#  37]+0.003*[#  12]+0.003*[#   2]
          +0.003*[#  32]+0.003*[#  22]+0.002*[#   8]+0.002*[#  38]
    |psi|^2 = 0.067
==== e( 104) =    16.38913 eV ==== 
     psi = 0.004*[#   2]+0.004*[#  12]+0.004*[#  22]+0.004*[#  32]+0.003*[#  16]
          +0.003*[#  26]+0.003*[#  10]+0.003*[#  40]+0.002*[#  19]+0.001*[#   7]
          +0.001*[#  29]+0.001*[#  37]
    |psi|^2 = 0.042
==== e( 105) =    16.59288 eV ==== 

    |psi|^2 = 0.004
==== e( 106) =    16.74901 eV ==== 
     psi = 0.001*[#  17]+0.001*[#  28]
    |psi|^2 = 0.012
==== e( 107) =    16.76622 eV ==== 
     psi = 0.094*[#   2]+0.094*[#  32]+0.009*[#  66]+0.009*[#  78]+0.009*[#  86]
          +0.009*[#  90]+0.004*[#  63]+0.004*[#  71]+0.004*[#  75]+0.004*[#  83]
          +0.003*[#  27]+0.003*[#  17]+0.002*[#   7]+0.002*[#  37]+0.002*[#  64]
          +0.002*[#  72]+0.002*[#  76]+0.002*[#  84]+0.002*[#  18]+0.001*[#   1]
          +0.001*[#  31]+0.001*[#  61]+0.001*[#  69]+0.001*[#  73]+0.001*[#  81]
          +0.001*[#   8]+0.001*[#  28]+0.001*[#  38]
    |psi|^2 = 0.274
==== e( 108) =    16.76626 eV ==== 
     psi = 0.094*[#  12]+0.094*[#  22]+0.006*[#  64]+0.006*[#  72]+0.006*[#  76]
          +0.006*[#  84]+0.004*[#  79]+0.004*[#  87]+0.004*[#  19]+0.004*[#  67]
          +0.004*[#  91]+0.004*[#   9]+0.004*[#  39]+0.003*[#  63]+0.003*[#  71]
          +0.003*[#  75]+0.003*[#  83]+0.002*[#  29]+0.002*[#  68]+0.002*[#  92]
          +0.002*[#  80]+0.002*[#  88]+0.002*[#  30]+0.001*[#  11]+0.001*[#  21]
          +0.001*[#  65]+0.001*[#  77]+0.001*[#  85]+0.001*[#  89]
    |psi|^2 = 0.274
==== e( 109) =    17.98344 eV ==== 
     psi = 0.007*[#   2]+0.007*[#  12]+0.007*[#  22]+0.007*[#  32]+0.004*[#  42]
          +0.004*[#  52]+0.002*[#  62]+0.002*[#  70]+0.002*[#  74]+0.002*[#  82]
          +0.002*[#  68]+0.002*[#  92]+0.001*[#  20]+0.001*[#  29]+0.001*[#  79]
          +0.001*[#  80]+0.001*[#  87]+0.001*[#  88]
    |psi|^2 = 0.070
==== e( 110) =    18.53641 eV ==== 
     psi = 0.002*[#  63]+0.002*[#  71]+0.002*[#  75]+0.002*[#  83]+0.001*[#  10]
          +0.001*[#  40]
    |psi|^2 = 0.024
==== e( 111) =    18.53650 eV ==== 
     psi = 0.002*[#  67]+0.002*[#  91]+0.002*[#  30]+0.002*[#  80]+0.002*[#  88]
          +0.001*[#  19]+0.001*[#  79]+0.001*[#  87]
    |psi|^2 = 0.024
==== e( 112) =    18.67543 eV ==== 
     psi = 0.038*[#   2]+0.038*[#  12]+0.038*[#  22]+0.038*[#  32]+0.004*[#  68]
          +0.004*[#  79]+0.004*[#  87]+0.004*[#  92]+0.002*[#  62]+0.002*[#  70]
          +0.002*[#  74]+0.002*[#  82]+0.001*[#  63]+0.001*[#  71]+0.001*[#  75]
          +0.001*[#  83]+0.001*[#  42]+0.001*[#  52]+0.001*[#  61]+0.001*[#  65]
          +0.001*[#  69]+0.001*[#  73]+0.001*[#  77]+0.001*[#  81]+0.001*[#  85]
          +0.001*[#  89]
    |psi|^2 = 0.202
==== e( 113) =    18.83968 eV ==== 
     psi = 0.013*[#   2]+0.013*[#  12]+0.013*[#  22]+0.013*[#  32]+0.003*[#  42]
          +0.003*[#  52]+0.002*[#  67]+0.002*[#  91]+0.001*[#  80]+0.001*[#  88]
          +0.001*[#  63]+0.001*[#  71]+0.001*[#  75]
    |psi|^2 = 0.088
==== e( 114) =    18.87168 eV ==== 
     psi = 0.024*[#   2]+0.024*[#  12]+0.024*[#  22]+0.024*[#  32]+0.008*[#  42]
          +0.008*[#  52]+0.003*[#  61]+0.003*[#  65]+0.003*[#  69]+0.003*[#  73]
          +0.003*[#  77]+0.003*[#  81]+0.003*[#  85]+0.003*[#  89]+0.002*[#  80]
          +0.002*[#  88]+0.002*[#  67]+0.002*[#  91]+0.001*[#  62]+0.001*[#  70]
          +0.001*[#  74]+0.001*[#  82]
    |psi|^2 = 0.162
==== e( 115) =    19.11093 eV ==== 
     psi = 0.049*[#  12]+0.049*[#  22]+0.003*[#  64]+0.003*[#  72]+0.003*[#  76]
          +0.003*[#  84]+0.002*[#  67]+0.002*[#  91]+0.001*[#  63]+0.001*[#  71]
          +0.001*[#  75]+0.001*[#  83]+0.001*[#  79]+0.001*[#  80]+0.001*[#  87]
          +0.001*[#  88]
    |psi|^2 = 0.132
==== e( 116) =    19.11094 eV ==== 
     psi = 0.049*[#   2]+0.049*[#  32]+0.004*[#  66]+0.004*[#  78]+0.004*[#  86]
          +0.004*[#  90]+0.001*[#  17]+0.001*[#  63]+0.001*[#  71]+0.001*[#  75]
          +0.001*[#  83]
    |psi|^2 = 0.132
==== e( 117) =    19.21798 eV ==== 

    |psi|^2 = 0.006
==== e( 118) =    19.44590 eV ==== 
     psi = 0.024*[#   2]+0.024*[#  12]+0.024*[#  22]+0.024*[#  32]+0.004*[#  42]
          +0.004*[#  52]+0.002*[#  79]+0.002*[#  87]+0.002*[#  63]+0.002*[#  71]
          +0.002*[#  75]+0.002*[#  83]+0.002*[#  67]+0.002*[#  68]+0.002*[#  91]
          +0.002*[#  92]
    |psi|^2 = 0.141
==== e( 119) =    20.11594 eV ==== 
     psi = 0.002*[#  17]+0.002*[#   9]+0.002*[#  28]+0.002*[#  39]
    |psi|^2 = 0.011
==== e( 120) =    20.12444 eV ==== 
     psi = 0.018*[#   2]+0.018*[#  32]+0.002*[#  12]+0.002*[#  22]+0.001*[#   7]
          +0.001*[#  37]+0.001*[#  66]+0.001*[#  78]+0.001*[#  86]+0.001*[#  90]
          
    |psi|^2 = 0.055

Lowdin Charges: 

     Atom #   1: total charge =  13.2841, s =  2.5354, p =  5.9988, d =  4.7499, 
                 spin up      =   8.1930, s =  1.2967, 
                 spin up      =   8.1930, p =  2.9994, pz=  0.9997, px=  0.9998, py=  0.9998, 
                 spin up      =   8.1930, d =  3.8969, dz2=  0.8223, dxz=  0.8003, dyz=  0.6912, dx2-y2=  0.8863, dxy=  0.6969, 
                 spin down    =   5.0911, s =  1.2387, 
                 spin down    =   5.0911, p =  2.9994, pz=  0.9997, px=  0.9999, py=  0.9998, 
                 spin down    =   5.0911, d =  0.8530, dz2=  0.1438, dxz=  0.1695, dyz=  0.2335, dx2-y2=  0.0915, dxy=  0.2148, 
                 polarization =   3.1019, s =  0.0580, p = -0.0000, d =  3.0439, 
     Atom #   2: total charge =  13.2788, s =  2.5319, p =  5.9990, d =  4.7479, 
                 spin up      =   8.1965, s =  1.2964, 
                 spin up      =   8.1965, p =  2.9995, pz=  0.9999, px=  0.9997, py=  0.9999, 
                 spin up      =   8.1965, d =  3.9006, dz2=  0.8427, dxz=  0.7859, dyz=  0.7105, dx2-y2=  0.8821, dxy=  0.6793, 
                 spin down    =   5.0823, s =  1.2355, 
                 spin down    =   5.0823, p =  2.9995, pz=  0.9999, px=  0.9997, py=  0.9998, 
                 spin down    =   5.0823, d =  0.8473, dz2=  0.1295, dxz=  0.1623, dyz=  0.2116, dx2-y2=  0.1111, dxy=  0.2328, 
                 polarization =   3.1142, s =  0.0609, p = -0.0000, d =  3.0533, 
     Atom #   3: total charge =  13.2873, s =  2.5388, p =  5.9987, d =  4.7498, 
                 spin up      =   8.1879, s =  1.2970, 
                 spin up      =   8.1879, p =  2.9993, pz=  0.9998, px=  0.9998, py=  0.9996, 
                 spin up      =   8.1879, d =  3.8917, dz2=  0.8502, dxz=  0.8118, dyz=  0.6673, dx2-y2=  0.8983, dxy=  0.6640, 
                 spin down    =   5.0993, s =  1.2418, 
                 spin down    =   5.0993, p =  2.9994, pz=  0.9999, px=  0.9999, py=  0.9996, 
                 spin down    =   5.0993, d =  0.8581, dz2=  0.1277, dxz=  0.1436, dyz=  0.2392, dx2-y2=  0.1183, dxy=  0.2294, 
                 polarization =   3.0886, s =  0.0551, p = -0.0001, d =  3.0335, 
     Atom #   4: total charge =  13.2841, s =  2.5354, p =  5.9988, d =  4.7499, 
                 spin up      =   8.1930, s =  1.2967, 
                 spin up      =   8.1930, p =  2.9994, pz=  0.9997, px=  0.9998, py=  0.9998, 
                 spin up      =   8.1930, d =  3.8969, dz2=  0.8223, dxz=  0.8003, dyz=  0.6912, dx2-y2=  0.8863, dxy=  0.6969, 
                 spin down    =   5.0911, s =  1.2387, 
                 spin down    =   5.0911, p =  2.9994, pz=  0.9997, px=  0.9999, py=  0.9998, 
                 spin down    =   5.0911, d =  0.8530, dz2=  0.1438, dxz=  0.1695, dyz=  0.2335, dx2-y2=  0.0915, dxy=  0.2148, 
                 polarization =   3.1019, s =  0.0580, p = -0.0000, d =  3.0439, 
     Atom #   5: total charge =  19.0072, s =  3.0744, p =  5.9987, d =  9.9342, 
                 spin up      =   9.5035, s =  1.5440, 
                 spin up      =   9.5035, p =  2.9992, pz=  0.9997, px=  0.9997, py=  0.9998, 
                 spin up      =   9.5035, d =  4.9603, dz2=  0.9916, dxz=  0.9910, dyz=  0.9942, dx2-y2=  0.9895, dxy=  0.9940, 
                 spin down    =   9.5037, s =  1.5304, 
                 spin down    =   9.5037, p =  2.9995, pz=  0.9998, px=  0.9998, py=  0.9998, 
                 spin down    =   9.5037, d =  4.9738, dz2=  0.9942, dxz=  0.9941, dyz=  0.9964, dx2-y2=  0.9930, dxy=  0.9961, 
                 polarization =  -0.0001, s =  0.0136, p = -0.0002, d = -0.0135, 
     Atom #   6: total charge =  19.0072, s =  3.0744, p =  5.9987, d =  9.9342, 
                 spin up      =   9.5035, s =  1.5440, 
                 spin up      =   9.5035, p =  2.9992, pz=  0.9997, px=  0.9997, py=  0.9998, 
                 spin up      =   9.5035, d =  4.9603, dz2=  0.9916, dxz=  0.9910, dyz=  0.9942, dx2-y2=  0.9895, dxy=  0.9940, 
                 spin down    =   9.5037, s =  1.5304, 
                 spin down    =   9.5037, p =  2.9995, pz=  0.9998, px=  0.9998, py=  0.9998, 
                 spin down    =   9.5037, d =  4.9738, dz2=  0.9942, dxz=  0.9941, dyz=  0.9964, dx2-y2=  0.9930, dxy=  0.9961, 
                 polarization =  -0.0001, s =  0.0136, p = -0.0002, d = -0.0135, 
     Atom #   7: total charge =   6.4909, s =  1.8530, p =  4.6379, d =  0.0000, 
                 spin up      =   3.1186, s =  0.9274, 
                 spin up      =   3.1186, p =  2.1913, pz=  0.7193, px=  0.7303, py=  0.7417, 
                 spin up      =   3.1186, d =  0.0000, dz2=  0.0000, dxz=  0.0000, dyz=  0.0000, dx2-y2=  0.0000, dxy=  0.0000, 
                 spin down    =   3.3722, s =  0.9256, 
                 spin down    =   3.3722, p =  2.4466, pz=  0.7982, px=  0.8197, py=  0.8288, 
                 spin down    =   3.3722, d =  0.0000, dz2=  0.0000, dxz=  0.0000, dyz=  0.0000, dx2-y2=  0.0000, dxy=  0.0000, 
                 polarization =  -0.2536, s =  0.0018, p = -0.2554, d =  0.0000, 
     Atom #   8: total charge =   6.4927, s =  1.8517, p =  4.6409, d =  0.0000, 
                 spin up      =   3.1164, s =  0.9268, 
                 spin up      =   3.1164, p =  2.1897, pz=  0.7366, px=  0.7147, py=  0.7384, 
                 spin up      =   3.1164, d =  0.0000, dz2=  0.0000, dxz=  0.0000, dyz=  0.0000, dx2-y2=  0.0000, dxy=  0.0000, 
                 spin down    =   3.3762, s =  0.9250, 
                 spin down    =   3.3762, p =  2.4513, pz=  0.8291, px=  0.7934, py=  0.8287, 
                 spin down    =   3.3762, d =  0.0000, dz2=  0.0000, dxz=  0.0000, dyz=  0.0000, dx2-y2=  0.0000, dxy=  0.0000, 
                 polarization =  -0.2598, s =  0.0018, p = -0.2616, d =  0.0000, 
     Atom #   9: total charge =   6.4909, s =  1.8530, p =  4.6379, d =  0.0000, 
                 spin up      =   3.1186, s =  0.9274, 
                 spin up      =   3.1186, p =  2.1913, pz=  0.7193, px=  0.7303, py=  0.7417, 
                 spin up      =   3.1186, d =  0.0000, dz2=  0.0000, dxz=  0.0000, dyz=  0.0000, dx2-y2=  0.0000, dxy=  0.0000, 
                 spin down    =   3.3722, s =  0.9256, 
                 spin down    =   3.3722, p =  2.4466, pz=  0.7982, px=  0.8197, py=  0.8288, 
                 spin down    =   3.3722, d =  0.0000, dz2=  0.0000, dxz=  0.0000, dyz=  0.0000, dx2-y2=  0.0000, dxy=  0.0000, 
                 polarization =  -0.2536, s =  0.0018, p = -0.2554, d =  0.0000, 
     Atom #  10: total charge =   6.4909, s =  1.8530, p =  4.6379, d =  0.0000, 
                 spin up      =   3.1186, s =  0.9274, 
                 spin up      =   3.1186, p =  2.1913, pz=  0.7193, px=  0.7303, py=  0.7417, 
                 spin up      =   3.1186, d =  0.0000, dz2=  0.0000, dxz=  0.0000, dyz=  0.0000, dx2-y2=  0.0000, dxy=  0.0000, 
                 spin down    =   3.3722, s =  0.9256, 
                 spin down    =   3.3722, p =  2.4466, pz=  0.7982, px=  0.8197, py=  0.8288, 
                 spin down    =   3.3722, d =  0.0000, dz2=  0.0000, dxz=  0.0000, dyz=  0.0000, dx2-y2=  0.0000, dxy=  0.0000, 
                 polarization =  -0.2536, s =  0.0018, p = -0.2554, d =  0.0000, 
     Atom #  11: total charge =   6.4891, s =  1.8542, p =  4.6349, d =  0.0000, 
                 spin up      =   3.1208, s =  0.9280, 
                 spin up      =   3.1208, p =  2.1929, pz=  0.7410, px=  0.7385, py=  0.7133, 
                 spin up      =   3.1208, d =  0.0000, dz2=  0.0000, dxz=  0.0000, dyz=  0.0000, dx2-y2=  0.0000, dxy=  0.0000, 
                 spin down    =   3.3682, s =  0.9262, 
                 spin down    =   3.3682, p =  2.4420, pz=  0.8346, px=  0.8333, py=  0.7742, 
                 spin down    =   3.3682, d =  0.0000, dz2=  0.0000, dxz=  0.0000, dyz=  0.0000, dx2-y2=  0.0000, dxy=  0.0000, 
                 polarization =  -0.2474, s =  0.0018, p = -0.2492, d =  0.0000, 
     Atom #  12: total charge =   6.4909, s =  1.8530, p =  4.6379, d =  0.0000, 
                 spin up      =   3.1186, s =  0.9274, 
                 spin up      =   3.1186, p =  2.1913, pz=  0.7193, px=  0.7303, py=  0.7417, 
                 spin up      =   3.1186, d =  0.0000, dz2=  0.0000, dxz=  0.0000, dyz=  0.0000, dx2-y2=  0.0000, dxy=  0.0000, 
                 spin down    =   3.3722, s =  0.9256, 
                 spin down    =   3.3722, p =  2.4466, pz=  0.7982, px=  0.8197, py=  0.8288, 
                 spin down    =   3.3722, d =  0.0000, dz2=  0.0000, dxz=  0.0000, dyz=  0.0000, dx2-y2=  0.0000, dxy=  0.0000, 
                 polarization =  -0.2536, s =  0.0018, p = -0.2554, d =  0.0000, 
     Atom #  13: total charge =   6.4891, s =  1.8542, p =  4.6349, d =  0.0000, 
                 spin up      =   3.1208, s =  0.9280, 
                 spin up      =   3.1208, p =  2.1929, pz=  0.7410, px=  0.7385, py=  0.7133, 
                 spin up      =   3.1208, d =  0.0000, dz2=  0.0000, dxz=  0.0000, dyz=  0.0000, dx2-y2=  0.0000, dxy=  0.0000, 
                 spin down    =   3.3682, s =  0.9262, 
                 spin down    =   3.3682, p =  2.4420, pz=  0.8346, px=  0.8333, py=  0.7742, 
                 spin down    =   3.3682, d =  0.0000, dz2=  0.0000, dxz=  0.0000, dyz=  0.0000, dx2-y2=  0.0000, dxy=  0.0000, 
                 polarization =  -0.2474, s =  0.0018, p = -0.2492, d =  0.0000, 
     Atom #  14: total charge =   6.4927, s =  1.8517, p =  4.6409, d =  0.0000, 
                 spin up      =   3.1164, s =  0.9268, 
                 spin up      =   3.1164, p =  2.1897, pz=  0.7366, px=  0.7147, py=  0.7384, 
                 spin up      =   3.1164, d =  0.0000, dz2=  0.0000, dxz=  0.0000, dyz=  0.0000, dx2-y2=  0.0000, dxy=  0.0000, 
                 spin down    =   3.3762, s =  0.9250, 
                 spin down    =   3.3762, p =  2.4513, pz=  0.8291, px=  0.7934, py=  0.8287, 
                 spin down    =   3.3762, d =  0.0000, dz2=  0.0000, dxz=  0.0000, dyz=  0.0000, dx2-y2=  0.0000, dxy=  0.0000, 
                 polarization =  -0.2598, s =  0.0018, p = -0.2616, d =  0.0000, 
     Spilling Parameter:   0.0064

     PROJWFC      :     21.90s CPU     22.65s WALL


   This run was terminated on:   9:24:32  16Jul2024            

=------------------------------------------------------------------------------=
   JOB DONE.
=------------------------------------------------------------------------------=
